ITEM: TIMESTEP
0
ITEM: NUMBER OF ATOMS
690
ITEM: BOX BOUNDS pp pp ff
0.0000000000000000e+00 2.3140599999999999e+01
0.0000000000000000e+00 2.3140599999999999e+01
0.0000000000000000e+00 5.0000000000000000e+01
ITEM: ATOMS id type x y z fx fy fz vx vy vz
1 1 1.47999e-20 2.12008e-19 3.5239e-05 0 0 0 3.4041e-17 1.48004e-16 0.0704716
2 1 1.6529 1.6529 1.65287 0 0 0 1.06119e-14 1.02819e-14 -0.0600226
3 1 3.3058 2.72572e-19 3.5239e-05 0 0 0 1.04066e-16 2.54822e-16 0.0704716
4 1 4.9587 1.6529 1.65287 0 0 0 1.18961e-16 -1.07303e-16 -0.0600226
15 1 2.04238e-19 3.3058 3.5239e-05 0 0 0 1.67245e-16 1.04459e-16 0.0704716
16 1 1.6529 4.9587 1.65287 0 0 0 2.24227e-16 3.06279e-16 -0.0600226
17 1 3.3058 3.3058 3.5239e-05 0 0 0 1.02932e-16 -1.34522e-16 0.0704716
18 1 4.9587 4.9587 1.65287 0 0 0 -2.81191e-16 -2.99701e-18 -0.0600226
99 1 4.04037e-19 6.57299e-19 3.30579 0 0 0 -1.05456e-13 -1.05215e-13 -0.0291508
100 1 1.6529 1.6529 4.9587 0 0 0 4.53436e-11 4.53439e-11 0.00503563
101 1 3.3058 4.92373e-19 3.30579 0 0 0 1.0271e-11 -1.38915e-13 -0.0291508
102 1 4.9587 1.6529 4.9587 0 0 0 -1.88296e-11 7.35882e-11 0.00503563
113 1 3.99967e-19 3.3058 3.30579 0 0 0 -1.3877e-13 1.02702e-11 -0.0291508
114 1 1.6529 4.9587 4.9587 0 0 0 7.35885e-11 -1.88299e-11 0.00503563
115 1 3.3058 3.3058 3.30579 0 0 0 -8.33487e-12 -8.33476e-12 -0.0291508
116 1 4.9587 4.9587 4.9587 0 0 0 2.09816e-11 2.09814e-11 0.00503563
5 1 6.6116 2.47158e-19 3.5239e-05 0 0 0 2.72725e-16 3.24129e-16 0.0704716
6 1 8.2645 1.6529 1.65287 0 0 0 1.76009e-16 9.84229e-17 -0.0600226
7 1 9.9174 2.61958e-19 3.5239e-05 0 0 0 -2.25533e-16 3.4337e-16 0.0704716
19 1 6.6116 3.3058 3.5239e-05 0 0 0 -2.09247e-16 -2.61921e-16 0.0704716
20 1 8.2645 4.9587 1.65287 0 0 0 8.56112e-16 -3.58506e-17 -0.0600226
21 1 9.9174 3.3058 3.5239e-05 0 0 0 -3.49197e-16 -1.64354e-16 0.0704716
103 1 6.6116 9.86042e-19 3.30579 0 0 0 -3.75771e-15 -1.41815e-13 -0.0291508
104 1 8.2645 1.6529 4.9587 0 0 0 1.21254e-12 5.23607e-11 0.00503563
105 1 9.9174 1.01971e-18 3.30579 0 0 0 -3.47907e-15 -1.39714e-13 -0.0291508
117 1 6.6116 3.3058 3.30579 0 0 0 -3.8248e-15 -1.20167e-14 -0.0291508
118 1 8.2645 4.9587 4.9587 0 0 0 9.08687e-12 -1.41965e-12 0.00503563
119 1 9.9174 3.3058 3.30579 0 0 0 6.62703e-15 -1.37438e-14 -0.0291508
8 1 11.5703 1.6529 1.65287 0 0 0 5.59688e-16 1.55405e-16 -0.0600226
9 1 13.2232 2.08678e-19 3.5239e-05 0 0 0 2.07876e-16 2.94529e-16 0.0704716
10 1 14.8761 1.6529 1.65287 0 0 0 -9.88437e-15 9.94737e-15 -0.0600226
11 1 16.529 9.17592e-20 3.5239e-05 0 0 0 -2.51683e-17 1.62805e-16 0.0704716
22 1 11.5703 4.9587 1.65287 0 0 0 7.71727e-16 -8.54804e-17 -0.0600226
23 1 13.2232 3.3058 3.5239e-05 0 0 0 -4.33434e-17 -2.42565e-16 0.0704716
24 1 14.8761 4.9587 1.65287 0 0 0 -3.12914e-16 -4.0561e-17 -0.0600226
25 1 16.529 3.3058 3.5239e-05 0 0 0 -4.97046e-17 -2.05657e-16 0.0704716
106 1 11.5703 1.6529 4.9587 0 0 0 1.13419e-11 8.54259e-11 0.00503563
107 1 13.2232 6.14195e-19 3.30579 0 0 0 -9.66068e-12 -1.4176e-13 -0.0291508
108 1 14.8761 1.6529 4.9587 0 0 0 -4.78814e-11 2.58812e-11 0.00503563
109 1 16.529 1.1629e-18 3.30579 0 0 0 -5.5416e-13 -9.54861e-14 -0.0291508
120 1 11.5703 4.9587 4.9587 0 0 0 -1.0771e-11 9.99303e-12 0.00503563
121 1 13.2232 3.3058 3.30579 0 0 0 7.69748e-12 -7.84635e-12 -0.0291508
122 1 14.8761 4.9587 4.9587 0 0 0 -1.08212e-10 -1.03478e-11 0.00503563
123 1 16.529 3.3058 3.30579 0 0 0 4.10274e-13 9.90709e-12 -0.0291508
12 1 18.1819 1.6529 1.65287 0 0 0 1.08588e-14 1.05528e-14 -0.0600226
13 1 19.8348 9.49505e-20 3.5239e-05 0 0 0 -4.39573e-16 2.53226e-16 0.0704716
14 1 21.4877 1.6529 1.65287 0 0 0 -1.05349e-14 1.03188e-14 -0.0600226
26 1 18.1819 4.9587 1.65287 0 0 0 8.47093e-16 3.86936e-17 -0.0600226
27 1 19.8348 3.3058 3.5239e-05 0 0 0 5.32815e-17 -1.38951e-16 0.0704716
28 1 21.4877 4.9587 1.65287 0 0 0 -2.63448e-16 -2.17873e-17 -0.0600226
110 1 18.1819 1.6529 4.9587 0 0 0 1.56882e-11 1.12028e-10 0.00503564
111 1 19.8348 1.13127e-19 3.30579 0 0 0 -1.56189e-13 -7.96163e-14 -0.0291508
112 1 21.4877 1.6529 4.9587 0 0 0 -8.48342e-12 8.44677e-11 0.00503564
124 1 18.1819 4.9587 4.9587 0 0 0 -2.43701e-11 -5.88575e-12 0.00503564
125 1 19.8348 3.3058 3.30579 0 0 0 -9.40332e-14 -1.65491e-11 -0.0291508
126 1 21.4877 4.9587 4.9587 0 0 0 4.22434e-11 -7.47285e-12 0.00503564
29 1 5.91995e-20 6.6116 3.5239e-05 0 0 0 1.21364e-16 2.93347e-16 0.0704716
30 1 1.6529 8.2645 1.65287 0 0 0 1.25804e-17 -3.59142e-17 -0.0600226
31 1 3.3058 6.6116 3.5239e-05 0 0 0 -7.95292e-17 6.23349e-17 0.0704716
32 1 4.9587 8.2645 1.65287 0 0 0 1.0768e-16 4.48869e-16 -0.0600226
43 1 0 9.9174 3.5239e-05 0 0 0 3.10809e-17 -6.27382e-16 0.0704716
45 1 3.3058 9.9174 3.5239e-05 0 0 0 7.47884e-17 -5.59901e-16 0.0704716
127 1 5.58695e-19 6.6116 3.30579 0 0 0 -1.41969e-13 -2.46651e-15 -0.0291508
128 1 1.6529 8.2645 4.9587 0 0 0 5.23615e-11 1.21196e-12 0.00503563
129 1 3.3058 6.6116 3.30579 0 0 0 -1.15202e-14 -3.55307e-15 -0.0291508
130 1 4.9587 8.2645 4.9587 0 0 0 -1.41964e-12 9.0868e-12 0.00503563
141 1 7.66264e-19 9.9174 3.30579 0 0 0 -1.39758e-13 -3.82489e-15 -0.0291508
143 1 3.3058 9.9174 3.30579 0 0 0 -1.37378e-14 5.74712e-15 -0.0291508
33 1 6.6116 6.6116 3.5239e-05 0 0 0 2.78734e-16 3.01881e-16 0.0704716
34 1 8.2645 8.2645 1.65287 0 0 0 2.18422e-16 3.80255e-16 -0.0600226
35 1 9.9174 6.6116 3.5239e-05 0 0 0 -2.06639e-16 4.34635e-16 0.0704716
47 1 6.6116 9.9174 3.5239e-05 0 0 0 2.42322e-16 -4.27582e-16 0.0704716
49 1 9.9174 9.9174 3.5239e-05 0 0 0 -3.30177e-16 -6.51774e-16 0.0704716
131 1 6.6116 6.6116 3.30579 0 0 0 -1.90169e-14 -1.78914e-14 -0.0291508
132 1 8.2645 8.2645 4.9587 0 0 0 8.2996e-13 8.2911e-13 0.00503563
133 1 9.9174 6.6116 3.30579 0 0 0 9.57463e-15 -3.50365e-14 -0.0291508
145 1 6.6116 9.9174 3.30579 0 0 0 -3.53393e-14 9.10074e-15 -0.0291508
147 1 9.9174 9.9174 3.30579 0 0 0 1.59632e-15 1.1629e-15 -0.0291508
36 1 11.5703 8.2645 1.65287 0 0 0 5.87068e-16 7.63147e-18 -0.0600226
37 1 13.2232 6.6116 3.5239e-05 0 0 0 6.86253e-17 4.07029e-16 0.0704716
38 1 14.8761 8.2645 1.65287 0 0 0 6.47519e-18 3.35114e-16 -0.0600226
39 1 16.529 6.6116 3.5239e-05 0 0 0 -1.2593e-17 5.61121e-16 0.0704716
51 1 13.2232 9.9174 3.5239e-05 0 0 0 1.24902e-16 -5.47893e-16 0.0704716
53 1 16.529 9.9174 3.5239e-05 0 0 0 -1.19721e-18 -8.08641e-16 0.0704716
134 1 11.5703 8.2645 4.9587 0 0 0 -6.6023e-12 -1.44368e-11 0.00503563
135 1 13.2232 6.6116 3.30579 0 0 0 1.31481e-14 -2.16723e-14 -0.0291508
136 1 14.8761 8.2645 4.9587 0 0 0 -6.8118e-11 1.55043e-11 0.00503563
137 1 16.529 6.6116 3.30579 0 0 0 2.06076e-13 -1.15226e-15 -0.0291508
149 1 13.2232 9.9174 3.30579 0 0 0 3.66064e-14 9.56617e-15 -0.0291508
151 1 16.529 9.9174 3.30579 0 0 0 2.05313e-13 6.22266e-15 -0.0291508
40 1 18.1819 8.2645 1.65287 0 0 0 8.97276e-16 -1.1081e-16 -0.0600226
41 1 19.8348 6.6116 3.5239e-05 0 0 0 -2.56047e-16 2.6092e-16 0.0704716
42 1 21.4877 8.2645 1.65287 0 0 0 -3.22649e-16 6.18057e-16 -0.0600226
55 1 19.8348 9.9174 3.5239e-05 0 0 0 -1.36164e-16 -9.07931e-16 0.0704716
138 1 18.1819 8.2645 4.9587 0 0 0 -2.88378e-11 -1.97001e-12 0.00503564
139 1 19.8348 6.6116 3.30579 0 0 0 -5.68009e-14 -7.67893e-16 -0.0291508
140 1 21.4877 8.2645 4.9587 0 0 0 5.12336e-11 -9.72869e-13 0.00503564
153 1 19.8348 9.9174 3.30579 0 0 0 -5.70447e-14 -2.52577e-15 -0.0291508
44 1 1.6529 11.5703 1.65287 0 0 0 3.99612e-16 1.20193e-15 -0.0600226
46 1 4.9587 11.5703 1.65287 0 0 0 -1.5367e-16 1.29518e-15 -0.0600226
57 1 1.89438e-19 13.2232 3.5239e-05 0 0 0 3.24129e-16 2.79444e-16 0.0704716
58 1 1.6529 14.8761 1.65287 0 0 0 9.76088e-15 -1.04965e-14 -0.0600226
59 1 3.3058 13.2232 3.5239e-05 0 0 0 6.24162e-17 2.37675e-16 0.0704716
60 1 4.9587 14.8761 1.65287 0 0 0 2.05558e-17 -8.50747e-16 -0.0600226
71 1 3.99597e-20 16.529 3.5239e-05 0 0 0 1.46524e-16 -3.18885e-16 0.0704716
73 1 3.3058 16.529 3.5239e-05 0 0 0 4.75233e-17 -1.09097e-16 0.0704716
142 1 1.6529 11.5703 4.9587 0 0 0 8.54264e-11 1.13425e-11 0.00503563
144 1 4.9587 11.5703 4.9587 0 0 0 9.99256e-12 -1.07705e-11 0.00503563
155 1 0 13.2232 3.30579 0 0 0 -1.42382e-13 -9.66046e-12 -0.0291508
156 1 1.6529 14.8761 4.9587 0 0 0 2.58822e-11 -4.78817e-11 0.00503563
157 1 3.3058 13.2232 3.30579 0 0 0 -7.84579e-12 7.69766e-12 -0.0291508
158 1 4.9587 14.8761 4.9587 0 0 0 -1.03485e-11 -1.08213e-10 0.00503563
169 1 5.44635e-19 16.529 3.30579 0 0 0 -9.57344e-14 -5.54109e-13 -0.0291508
171 1 3.3058 16.529 3.30579 0 0 0 9.90766e-12 4.1047e-13 -0.0291508
48 1 8.2645 11.5703 1.65287 0 0 0 3.09653e-16 9.72735e-16 -0.0600226
61 1 6.6116 13.2232 3.5239e-05 0 0 0 9.21439e-17 2.42945e-16 0.0704716
62 1 8.2645 14.8761 1.65287 0 0 0 3.59327e-16 -7.15416e-16 -0.0600226
63 1 9.9174 13.2232 3.5239e-05 0 0 0 -4.79649e-16 2.43155e-16 0.0704716
75 1 6.6116 16.529 3.5239e-05 0 0 0 4.58744e-16 -2.75044e-16 0.0704716
77 1 9.9174 16.529 3.5239e-05 0 0 0 -4.51673e-16 -2.52815e-16 0.0704716
146 1 8.2645 11.5703 4.9587 0 0 0 -1.44364e-11 -6.6021e-12 0.00503563
159 1 6.6116 13.2232 3.30579 0 0 0 -2.25036e-14 1.3823e-14 -0.0291508
160 1 8.2645 14.8761 4.9587 0 0 0 1.55052e-11 -6.8118e-11 0.00503563
161 1 9.9174 13.2232 3.30579 0 0 0 1.00122e-14 3.67519e-14 -0.0291508
173 1 6.6116 16.529 3.30579 0 0 0 -2.15823e-15 2.05791e-13 -0.0291508
175 1 9.9174 16.529 3.30579 0 0 0 6.85283e-15 2.05848e-13 -0.0291508
50 1 11.5703 11.5703 1.65287 0 0 0 8.66311e-16 1.51006e-15 -0.0600226
52 1 14.8761 11.5703 1.65287 0 0 0 -5.28098e-16 1.36108e-15 -0.0600226
64 1 11.5703 14.8761 1.65287 0 0 0 8.37011e-16 -9.47736e-16 -0.0600226
65 1 13.2232 13.2232 3.5239e-05 0 0 0 6.91803e-17 1.45301e-16 0.0704716
66 1 14.8761 14.8761 1.65287 0 0 0 -5.17321e-16 -1.24522e-15 -0.0600226
67 1 16.529 13.2232 3.5239e-05 0 0 0 -1.62355e-16 3.3812e-16 0.0704716
79 1 13.2232 16.529 3.5239e-05 0 0 0 7.54821e-17 7.34059e-18 0.0704716
81 1 16.529 16.529 3.5239e-05 0 0 0 -1.33032e-17 -3.32318e-16 0.0704716
148 1 11.5703 11.5703 4.9587 0 0 0 8.47754e-12 8.47808e-12 0.00503563
150 1 14.8761 11.5703 4.9587 0 0 0 -7.11883e-11 -1.03938e-11 0.00503563
162 1 11.5703 14.8761 4.9587 0 0 0 -1.03941e-11 -7.1189e-11 0.00503563
163 1 13.2232 13.2232 3.30579 0 0 0 1.73592e-14 1.7841e-14 -0.0291508
164 1 14.8761 14.8761 4.9587 0 0 0 -3.47427e-11 -3.47426e-11 0.00503563
165 1 16.529 13.2232 3.30579 0 0 0 1.97921e-13 -2.46959e-15 -0.0291508
177 1 13.2232 16.529 3.30579 0 0 0 -2.45368e-15 1.97624e-13 -0.0291508
179 1 16.529 16.529 3.30579 0 0 0 1.37886e-13 1.38735e-13 -0.0291508
54 1 18.1819 11.5703 1.65287 0 0 0 1.01522e-15 1.24918e-15 -0.0600226
56 1 21.4877 11.5703 1.65287 0 0 0 -6.14218e-16 1.28405e-15 -0.0600226
68 1 18.1819 14.8761 1.65287 0 0 0 1.16567e-15 -9.69746e-16 -0.0600226
69 1 19.8348 13.2232 3.5239e-05 0 0 0 -1.31724e-16 2.5525e-16 0.0704716
70 1 21.4877 14.8761 1.65287 0 0 0 -1.00687e-14 -1.05868e-14 -0.0600226
83 1 19.8348 16.529 3.5239e-05 0 0 0 -2.88608e-16 -5.42586e-17 0.0704716
152 1 18.1819 11.5703 4.9587 0 0 0 -5.16052e-11 -1.19715e-11 0.00503564
154 1 21.4877 11.5703 4.9587 0 0 0 3.30282e-11 2.14259e-11 0.00503564
166 1 18.1819 14.8761 4.9587 0 0 0 1.12742e-11 -1.18083e-10 0.00503564
167 1 19.8348 13.2232 3.30579 0 0 0 7.78505e-12 7.70175e-12 -0.0291508
168 1 21.4877 14.8761 4.9587 0 0 0 3.69648e-12 -8.68238e-11 0.00503564
181 1 19.8348 16.529 3.30579 0 0 0 -9.95203e-12 3.24019e-13 -0.0291508
72 1 1.6529 18.1819 1.65287 0 0 0 1.05912e-14 1.13997e-14 -0.0600226
74 1 4.9587 18.1819 1.65287 0 0 0 -1.95018e-16 1.02326e-15 -0.0600226
85 1 1.74639e-19 19.8348 3.5239e-05 0 0 0 3.3449e-16 -1.29134e-16 0.0704716
86 1 1.6529 21.4877 1.65287 0 0 0 1.03803e-14 -1.06937e-14 -0.0600226
87 1 3.3058 19.8348 3.5239e-05 0 0 0 -7.7286e-17 6.39078e-17 0.0704716
88 1 4.9587 21.4877 1.65287 0 0 0 -4.10198e-16 -2.90089e-16 -0.0600226
170 1 1.6529 18.1819 4.9587 0 0 0 1.12028e-10 1.56886e-11 0.00503564
172 1 4.9587 18.1819 4.9587 0 0 0 -5.8856e-12 -2.437e-11 0.00503564
183 1 0 19.8348 3.30579 0 0 0 -7.96666e-14 -1.56706e-13 -0.0291508
184 1 1.6529 21.4877 4.9587 0 0 0 8.44676e-11 -8.48318e-12 0.00503564
185 1 3.3058 19.8348 3.30579 0 0 0 -1.65484e-11 -9.38067e-14 -0.0291508
186 1 4.9587 21.4877 4.9587 0 0 0 -7.47209e-12 4.22437e-11 0.00503564
76 1 8.2645 18.1819 1.65287 0 0 0 1.53965e-16 8.11804e-16 -0.0600226
89 1 6.6116 19.8348 3.5239e-05 0 0 0 -1.01547e-16 -2.47167e-16 0.0704716
90 1 8.2645 21.4877 1.65287 0 0 0 9.98012e-16 -2.01286e-16 -0.0600226
91 1 9.9174 19.8348 3.5239e-05 0 0 0 -4.03786e-16 -8.58425e-17 0.0704716
174 1 8.2645 18.1819 4.9587 0 0 0 -1.96949e-12 -2.88369e-11 0.00503564
187 1 6.6116 19.8348 3.30579 0 0 0 -1.75721e-15 -5.73361e-14 -0.0291508
188 1 8.2645 21.4877 4.9587 0 0 0 -9.72644e-13 5.12337e-11 0.00503564
189 1 9.9174 19.8348 3.30579 0 0 0 -2.07501e-15 -5.75037e-14 -0.0291508
78 1 11.5703 18.1819 1.65287 0 0 0 5.76049e-16 1.45558e-15 -0.0600226
80 1 14.8761 18.1819 1.65287 0 0 0 -4.14505e-16 1.00217e-15 -0.0600226
92 1 11.5703 21.4877 1.65287 0 0 0 5.32191e-16 -7.91823e-16 -0.0600226
93 1 13.2232 19.8348 3.5239e-05 0 0 0 1.29111e-16 -9.62028e-17 0.0704716
94 1 14.8761 21.4877 1.65287 0 0 0 -1.02821e-14 -1.00243e-14 -0.0600226
95 1 16.529 19.8348 3.5239e-05 0 0 0 1.20029e-17 6.80821e-17 0.0704716
176 1 11.5703 18.1819 4.9587 0 0 0 -1.19719e-11 -5.16053e-11 0.00503564
178 1 14.8761 18.1819 4.9587 0 0 0 -1.18083e-10 1.1275e-11 0.00503564
190 1 11.5703 21.4877 4.9587 0 0 0 2.14257e-11 3.30291e-11 0.00503564
191 1 13.2232 19.8348 3.30579 0 0 0 7.70141e-12 7.78447e-12 -0.0291508
192 1 14.8761 21.4877 4.9587 0 0 0 -8.68234e-11 3.69656e-12 0.00503564
193 1 16.529 19.8348 3.30579 0 0 0 3.24598e-13 -9.9527e-12 -0.0291508
82 1 18.1819 18.1819 1.65287 0 0 0 1.01512e-15 1.57179e-15 -0.0600226
84 1 21.4877 18.1819 1.65287 0 0 0 -1.05631e-14 1.11829e-14 -0.0600226
96 1 18.1819 21.4877 1.65287 0 0 0 1.08255e-14 -1.10446e-14 -0.0600226
97 1 19.8348 19.8348 3.5239e-05 0 0 0 -6.8082e-17 3.18209e-17 0.0704716
98 1 21.4877 21.4877 1.65287 0 0 0 -1.03337e-14 -1.05797e-14 -0.0600226
180 1 18.1819 18.1819 4.9587 0 0 0 -1.32266e-11 -1.32263e-11 0.00503564
182 1 21.4877 18.1819 4.9587 0 0 0 3.89435e-11 -3.93412e-12 0.00503564
194 1 18.1819 21.4877 4.9587 0 0 0 -3.93479e-12 3.89438e-11 0.00503564
195 1 19.8348 19.8348 3.30579 0 0 0 8.14734e-12 8.14758e-12 -0.0291508
196 1 21.4877 21.4877 4.9587 0 0 0 -4.93053e-12 -4.93076e-12 0.00503564
197 1 1.79078e-19 0 6.6116 0 0 0 4.01575e-12 4.01475e-12 0.000981078
198 1 1.6529 1.6529 8.2645 0 0 0 -6.02611e-10 -6.02611e-10 -0.000981081
199 1 3.3058 0 6.6116 0 0 0 9.48706e-11 3.61622e-11 0.000981079
200 1 4.9587 1.6529 8.2645 0 0 0 -2.72222e-10 -4.84385e-10 -0.000981081
211 1 4.98756e-19 3.3058 6.6116 0 0 0 3.61625e-11 9.48708e-11 0.000981079
212 1 1.6529 4.9587 8.2645 0 0 0 -4.84385e-10 -2.72223e-10 -0.000981081
213 1 3.3058 3.3058 6.6116 0 0 0 1.84495e-10 1.84495e-10 0.000981078
214 1 4.9587 4.9587 8.2645 0 0 0 -3.1307e-10 -3.1307e-10 -0.00098108
295 1 3.10797e-20 0 9.9174 0 0 0 1.86547e-09 1.86547e-09 -0.00503563
297 1 3.3058 0 9.9174 0 0 0 3.90454e-10 2.3917e-09 -0.00503562
309 1 2.46048e-19 3.3058 9.9174 0 0 0 2.3917e-09 3.90454e-10 -0.00503562
311 1 3.3058 3.3058 9.9174 0 0 0 4.852e-10 4.852e-10 -0.00503562
201 1 6.6116 3.67037e-19 6.6116 0 0 0 4.79706e-11 -1.90551e-11 0.000981078
202 1 8.2645 1.6529 8.2645 0 0 0 -1.21457e-10 -6.42874e-10 -0.000981081
203 1 9.9174 0 6.6116 0 0 0 -3.49485e-11 -1.49942e-11 0.000981078
215 1 6.6116 3.3058 6.6116 0 0 0 -3.13337e-11 2.09167e-10 0.000981078
216 1 8.2645 4.9587 8.2645 0 0 0 3.31168e-11 -2.4696e-10 -0.00098108
217 1 9.9174 3.3058 6.6116 0 0 0 2.96214e-12 2.72756e-10 0.000981078
299 1 6.6116 0 9.9174 0 0 0 1.35636e-10 2.40974e-09 -0.00503562
301 1 9.9174 1.08409e-19 9.9174 0 0 0 -9.11558e-11 2.47713e-09 -0.00503562
313 1 6.6116 3.3058 9.9174 0 0 0 2.17684e-10 7.15042e-10 -0.00503562
315 1 9.9174 3.3058 9.9174 0 0 0 -2.07424e-10 7.05076e-10 -0.00503562
204 1 11.5703 1.6529 8.2645 0 0 0 4.55623e-10 -4.93098e-10 -0.000981081
205 1 13.2232 2.61218e-19 6.6116 0 0 0 -1.51383e-10 3.95586e-11 0.000981079
206 1 14.8761 1.6529 8.2645 0 0 0 5.53952e-10 -6.43153e-10 -0.000981081
207 1 16.529 0 6.6116 0 0 0 1.57238e-10 -7.39881e-11 0.000981078
218 1 11.5703 4.9587 8.2645 0 0 0 4.17208e-10 -2.69987e-10 -0.00098108
219 1 13.2232 3.3058 6.6116 0 0 0 -2.74107e-10 2.41799e-10 0.000981078
220 1 14.8761 4.9587 8.2645 0 0 0 3.65318e-10 -2.86852e-10 -0.000981081
221 1 16.529 3.3058 6.6116 0 0 0 2.17401e-10 5.20246e-11 0.000981079
303 1 13.2232 0 9.9174 0 0 0 -4.88446e-10 2.47316e-09 -0.00503562
305 1 16.529 3.58897e-20 9.9174 0 0 0 -2.45901e-09 1.65675e-09 -0.00503563
317 1 13.2232 3.3058 9.9174 0 0 0 -4.15973e-10 4.64123e-10 -0.00503562
319 1 16.529 3.3058 9.9174 0 0 0 -3.1416e-09 4.34028e-10 -0.00503562
208 1 18.1819 1.6529 8.2645 0 0 0 4.50354e-10 -2.80231e-10 -0.000981079
209 1 19.8348 2.96183e-19 6.6116 0 0 0 -1.11241e-10 -8.29386e-11 0.000981078
210 1 21.4877 1.6529 8.2645 0 0 0 -4.71663e-10 -3.81008e-10 -0.00098108
222 1 18.1819 4.9587 8.2645 0 0 0 5.64251e-10 -2.04609e-10 -0.000981079
223 1 19.8348 3.3058 6.6116 0 0 0 -1.40066e-10 5.85602e-11 0.000981078
224 1 21.4877 4.9587 8.2645 0 0 0 -5.58412e-10 -2.07662e-10 -0.000981079
307 1 19.8348 0 9.9174 0 0 0 5.49646e-10 1.34795e-09 -0.00503563
321 1 19.8348 3.3058 9.9174 0 0 0 7.28349e-10 2.86085e-10 -0.00503562
225 1 7.75513e-19 6.6116 6.6116 0 0 0 -1.90544e-11 4.79713e-11 0.000981078
226 1 1.6529 8.2645 8.2645 0 0 0 -6.42873e-10 -1.21456e-10 -0.000981081
227 1 3.3058 6.6116 6.6116 0 0 0 2.09166e-10 -3.13328e-11 0.000981078
228 1 4.9587 8.2645 8.2645 0 0 0 -2.46961e-10 3.31164e-11 -0.00098108
239 1 1.45039e-19 9.9174 6.6116 0 0 0 -1.49943e-11 -3.4949e-11 0.000981078
241 1 3.3058 9.9174 6.6116 0 0 0 2.72756e-10 2.96202e-12 0.000981078
323 1 0 6.6116 9.9174 0 0 0 2.40974e-09 1.35637e-10 -0.00503562
325 1 3.3058 6.6116 9.9174 0 0 0 7.15043e-10 2.17685e-10 -0.00503562
337 1 2.15338e-19 9.9174 9.9174 0 0 0 2.47713e-09 -9.11554e-11 -0.00503562
339 1 3.3058 9.9174 9.9174 0 0 0 7.05075e-10 -2.07425e-10 -0.00503562
229 1 6.6116 6.6116 6.6116 0 0 0 -2.5396e-11 -2.53955e-11 0.000981078
230 1 8.2645 8.2645 8.2645 0 0 0 5.82285e-11 5.82279e-11 -0.00098108
231 1 9.9174 6.6116 6.6116 0 0 0 4.17534e-12 8.22735e-11 0.000981078
243 1 6.6116 9.9174 6.6116 0 0 0 8.22727e-11 4.17457e-12 0.000981078
245 1 9.9174 9.9174 6.6116 0 0 0 1.86679e-11 1.86673e-11 0.000981078
327 1 6.6116 6.6116 9.9174 0 0 0 4.16049e-10 4.16049e-10 -0.00503562
329 1 9.9174 6.6116 9.9174 0 0 0 -2.16593e-10 7.12771e-10 -0.00503562
341 1 6.6116 9.9174 9.9174 0 0 0 7.1277e-10 -2.16593e-10 -0.00503562
343 1 9.9174 9.9174 9.9174 0 0 0 -1.0709e-10 -1.07091e-10 -0.00503561
232 1 11.5703 8.2645 8.2645 0 0 0 3.00127e-10 4.02403e-11 -0.00098108
233 1 13.2232 6.6116 6.6116 0 0 0 -2.77706e-10 -2.77564e-11 0.000981078
234 1 14.8761 8.2645 8.2645 0 0 0 4.50115e-10 2.50587e-11 -0.000981081
235 1 16.529 6.6116 6.6116 0 0 0 2.37851e-10 -1.68766e-11 0.000981078
247 1 13.2232 9.9174 6.6116 0 0 0 -3.51285e-10 3.50693e-12 0.000981078
249 1 16.529 9.9174 6.6116 0 0 0 1.64877e-10 9.5039e-12 0.000981078
331 1 13.2232 6.6116 9.9174 0 0 0 -7.19147e-10 5.42782e-10 -0.00503562
333 1 16.529 6.6116 9.9174 0 0 0 -3.28352e-09 1.45293e-10 -0.00503562
345 1 13.2232 9.9174 9.9174 0 0 0 -1.23794e-09 -2.45118e-10 -0.00503562
347 1 16.529 9.9174 9.9174 0 0 0 -3.2577e-09 -1.46644e-10 -0.00503562
236 1 18.1819 8.2645 8.2645 0 0 0 5.27524e-10 -7.63429e-11 -0.000981079
237 1 19.8348 6.6116 6.6116 0 0 0 -1.35855e-10 9.86288e-12 0.000981078
238 1 21.4877 8.2645 8.2645 0 0 0 -4.59634e-10 -8.61115e-11 -0.000981079
251 1 19.8348 9.9174 6.6116 0 0 0 -1.61759e-10 6.54317e-12 0.000981078
335 1 19.8348 6.6116 9.9174 0 0 0 7.15275e-10 5.94034e-11 -0.00503562
349 1 19.8348 9.9174 9.9174 0 0 0 6.24352e-10 1.14103e-11 -0.00503562
240 1 1.6529 11.5703 8.2645 0 0 0 -4.93097e-10 4.55623e-10 -0.000981081
242 1 4.9587 11.5703 8.2645 0 0 0 -2.69988e-10 4.17208e-10 -0.00098108
253 1 3.92937e-19 13.2232 6.6116 0 0 0 3.9559e-11 -1.51382e-10 0.000981079
254 1 1.6529 14.8761 8.2645 0 0 0 -6.43153e-10 5.53952e-10 -0.000981081
255 1 3.3058 13.2232 6.6116 0 0 0 2.41799e-10 -2.74106e-10 0.000981078
256 1 4.9587 14.8761 8.2645 0 0 0 -2.86852e-10 3.65319e-10 -0.000981081
267 1 0 16.529 6.6116 0 0 0 -7.39885e-11 1.57237e-10 0.000981078
269 1 3.3058 16.529 6.6116 0 0 0 5.20252e-11 2.17399e-10 0.000981079
351 1 0 13.2232 9.9174 0 0 0 2.47316e-09 -4.88446e-10 -0.00503562
353 1 3.3058 13.2232 9.9174 0 0 0 4.64123e-10 -4.15974e-10 -0.00503562
365 1 1.09519e-19 16.529 9.9174 0 0 0 1.65675e-09 -2.45901e-09 -0.00503563
367 1 3.3058 16.529 9.9174 0 0 0 4.34029e-10 -3.1416e-09 -0.00503562
244 1 8.2645 11.5703 8.2645 0 0 0 4.02411e-11 3.00128e-10 -0.00098108
257 1 6.6116 13.2232 6.6116 0 0 0 -2.77571e-11 -2.77705e-10 0.000981078
258 1 8.2645 14.8761 8.2645 0 0 0 2.50586e-11 4.50114e-10 -0.000981081
259 1 9.9174 13.2232 6.6116 0 0 0 3.50729e-12 -3.51284e-10 0.000981078
271 1 6.6116 16.529 6.6116 0 0 0 -1.68774e-11 2.37851e-10 0.000981078
273 1 9.9174 16.529 6.6116 0 0 0 9.50413e-12 1.64876e-10 0.000981078
355 1 6.6116 13.2232 9.9174 0 0 0 5.42782e-10 -7.19146e-10 -0.00503562
357 1 9.9174 13.2232 9.9174 0 0 0 -2.45118e-10 -1.23794e-09 -0.00503562
369 1 6.6116 16.529 9.9174 0 0 0 1.45292e-10 -3.28352e-09 -0.00503562
371 1 9.9174 16.529 9.9174 0 0 0 -1.46644e-10 -3.2577e-09 -0.00503562
246 1 11.5703 11.5703 8.2645 0 0 0 3.19701e-10 3.19701e-10 -0.00098108
248 1 14.8761 11.5703 8.2645 0 0 0 3.86571e-10 3.42166e-10 -0.000981081
260 1 11.5703 14.8761 8.2645 0 0 0 3.42165e-10 3.86571e-10 -0.000981081
261 1 13.2232 13.2232 6.6116 0 0 0 -3.19016e-10 -3.19016e-10 0.000981078
262 1 14.8761 14.8761 8.2645 0 0 0 5.18217e-10 5.18216e-10 -0.000981081
263 1 16.529 13.2232 6.6116 0 0 0 1.57031e-10 -9.58144e-11 0.000981079
275 1 13.2232 16.529 6.6116 0 0 0 -9.58153e-11 1.57032e-10 0.000981079
277 1 16.529 16.529 6.6116 0 0 0 2.01162e-10 2.01161e-10 0.000981079
359 1 13.2232 13.2232 9.9174 0 0 0 -7.28145e-10 -7.28144e-10 -0.00503562
361 1 16.529 13.2232 9.9174 0 0 0 -3.23516e-09 -2.65551e-10 -0.00503562
373 1 13.2232 16.529 9.9174 0 0 0 -2.65552e-10 -3.23516e-09 -0.00503562
375 1 16.529 16.529 9.9174 0 0 0 -2.22766e-09 -2.22766e-09 -0.00503563
250 1 18.1819 11.5703 8.2645 0 0 0 5.6698e-10 2.81226e-10 -0.000981079
252 1 21.4877 11.5703 8.2645 0 0 0 -5.64144e-10 3.23734e-10 -0.000981079
264 1 18.1819 14.8761 8.2645 0 0 0 5.162e-10 2.01974e-10 -0.000981079
265 1 19.8348 13.2232 6.6116 0 0 0 -9.9365e-11 -1.1481e-10 0.000981078
266 1 21.4877 14.8761 8.2645 0 0 0 -4.47271e-10 3.51065e-10 -0.00098108
279 1 19.8348 16.529 6.6116 0 0 0 -8.28712e-11 2.32973e-10 0.000981078
363 1 19.8348 13.2232 9.9174 0 0 0 7.59448e-10 -4.54186e-10 -0.00503562
377 1 19.8348 16.529 9.9174 0 0 0 4.54035e-10 -1.61213e-09 -0.00503563
268 1 1.6529 18.1819 8.2645 0 0 0 -2.8023e-10 4.50355e-10 -0.000981079
270 1 4.9587 18.1819 8.2645 0 0 0 -2.04609e-10 5.64251e-10 -0.000981079
281 1 2.95998e-19 19.8348 6.6116 0 0 0 -8.29386e-11 -1.1124e-10 0.000981078
282 1 1.6529 21.4877 8.2645 0 0 0 -3.81008e-10 -4.71663e-10 -0.00098108
283 1 3.3058 19.8348 6.6116 0 0 0 5.85607e-11 -1.40066e-10 0.000981078
284 1 4.9587 21.4877 8.2645 0 0 0 -2.07662e-10 -5.58412e-10 -0.000981079
379 1 0 19.8348 9.9174 0 0 0 1.34795e-09 5.49646e-10 -0.00503563
381 1 3.3058 19.8348 9.9174 0 0 0 2.86085e-10 7.28349e-10 -0.00503562
272 1 8.2645 18.1819 8.2645 0 0 0 -7.63424e-11 5.27524e-10 -0.000981079
285 1 6.6116 19.8348 6.6116 0 0 0 9.86175e-12 -1.35855e-10 0.000981078
286 1 8.2645 21.4877 8.2645 0 0 0 -8.61109e-11 -4.59633e-10 -0.000981079
287 1 9.9174 19.8348 6.6116 0 0 0 6.54373e-12 -1.61759e-10 0.000981078
383 1 6.6116 19.8348 9.9174 0 0 0 5.94029e-11 7.15276e-10 -0.00503562
385 1 9.9174 19.8348 9.9174 0 0 0 1.14106e-11 6.24352e-10 -0.00503562
274 1 11.5703 18.1819 8.2645 0 0 0 2.81226e-10 5.66981e-10 -0.000981079
276 1 14.8761 18.1819 8.2645 0 0 0 2.01974e-10 5.162e-10 -0.000981079
288 1 11.5703 21.4877 8.2645 0 0 0 3.23734e-10 -5.64144e-10 -0.000981079
289 1 13.2232 19.8348 6.6116 0 0 0 -1.14811e-10 -9.93655e-11 0.000981078
290 1 14.8761 21.4877 8.2645 0 0 0 3.51065e-10 -4.4727e-10 -0.00098108
291 1 16.529 19.8348 6.6116 0 0 0 2.32973e-10 -8.28711e-11 0.000981078
387 1 13.2232 19.8348 9.9174 0 0 0 -4.54187e-10 7.59448e-10 -0.00503562
389 1 16.529 19.8348 9.9174 0 0 0 -1.61213e-09 4.54034e-10 -0.00503563
278 1 18.1819 18.1819 8.2645 0 0 0 1.64969e-10 1.64969e-10 -0.000981078
280 1 21.4877 18.1819 8.2645 0 0 0 -9.38251e-11 1.6915e-10 -0.000981078
292 1 18.1819 21.4877 8.2645 0 0 0 1.6915e-10 -9.3825e-11 -0.000981078
293 1 19.8348 19.8348 6.6116 0 0 0 -1.06544e-10 -1.06544e-10 0.000981078
294 1 21.4877 21.4877 8.2645 0 0 0 -1.74967e-10 -1.74967e-10 -0.000981079
391 1 19.8348 19.8348 9.9174 0 0 0 3.41753e-10 3.41753e-10 -0.00503563
296 1 1.6529 1.6529 11.5703 0 0 0 8.46681e-10 8.46681e-10 0.0291508
298 1 4.9587 1.6529 11.5703 0 0 0 -3.2159e-10 1.53773e-09 0.0291508
310 1 1.6529 4.9587 11.5703 0 0 0 1.53773e-09 -3.2159e-10 0.0291508
312 1 4.9587 4.9587 11.5703 0 0 0 -4.52309e-10 -4.52309e-10 0.0291508
393 1 3.53717e-19 4.80996e-19 13.2232 0 0 0 8.83538e-09 8.83538e-09 0.0600931
394 1 1.6529 1.6529 14.8761 0 0 0 -1.48195e-05 -1.48195e-05 -0.0693717
395 1 3.3058 4.21796e-20 13.2232 0 0 0 2.50385e-09 1.20975e-08 0.0600227
396 1 4.9587 1.6529 14.8761 0 0 0 -1.50356e-05 -1.71469e-05 -0.0693335
407 1 9.91592e-20 3.3058 13.2232 0 0 0 1.20975e-08 2.50385e-09 0.0600227
408 1 1.6529 4.9587 14.8761 0 0 0 -1.71469e-05 -1.50356e-05 -0.0693335
409 1 3.3058 3.3058 13.2232 0 0 0 3.16898e-09 3.16898e-09 0.0600227
410 1 4.9587 4.9587 14.8761 0 0 0 -1.95026e-05 -1.95026e-05 -0.0692887
300 1 8.2645 1.6529 11.5703 0 0 0 2.21504e-11 1.61361e-09 0.0291508
314 1 8.2645 4.9587 11.5703 0 0 0 -4.81602e-10 -3.90994e-10 0.0291508
397 1 6.6116 2.69358e-19 13.2232 0 0 0 -1.86365e-10 1.24273e-08 0.0600227
398 1 8.2645 1.6529 14.8761 0 0 0 4.49916e-05 -1.91572e-05 -0.0693233
399 1 9.9174 0 13.2232 0 0 0 8.57537e-10 1.1804e-08 0.0600227
411 1 6.6116 3.3058 13.2232 0 0 0 -4.64926e-10 2.0056e-09 0.0600227
412 1 8.2645 4.9587 14.8761 0 0 0 -2.91255e-05 -5.47035e-05 -0.0692497
413 1 9.9174 3.3058 13.2232 0 0 0 -5.30829e-11 2.76734e-09 0.0600227
400 1 11.5703 1.6529 14.8761 0 0 0 -2.57508e-05 -1.88802e-05 -0.0693188
302 1 11.5703 1.6529 11.5703 0 0 0 6.76937e-10 1.18947e-09 0.0291508
304 1 14.8761 1.6529 11.5703 0 0 0 -1.73266e-09 1.1094e-09 0.0291508
316 1 11.5703 4.9587 11.5703 0 0 0 6.92e-10 -4.99781e-10 0.0291508
318 1 14.8761 4.9587 11.5703 0 0 0 -1.84196e-09 -4.10093e-10 0.0291508
401 1 13.2232 0 13.2232 0 0 0 -1.88833e-09 1.20339e-08 0.0600227
402 1 14.8761 1.6529 14.8761 0 0 0 2.01974e-05 -1.6497e-05 -0.0693431
403 1 16.529 2.11638e-19 13.2232 0 0 0 -5.31811e-06 8.36844e-09 0.0600906
414 1 11.5703 4.9587 14.8761 0 0 0 4.51566e-06 -4.65816e-05 -0.0693088
415 1 13.2232 3.3058 13.2232 0 0 0 -2.65201e-09 2.06121e-09 0.0600227
416 1 14.8761 4.9587 14.8761 0 0 0 2.45997e-05 -1.824e-05 -0.0693002
417 1 16.529 3.3058 13.2232 0 0 0 -1.68769e-08 1.92557e-09 0.0600227
306 1 18.1819 1.6529 11.5703 0 0 0 -8.7471e-10 -5.86385e-10 0.0291508
308 1 21.4877 1.6529 11.5703 0 0 0 1.28141e-09 -1.0872e-10 0.0291508
320 1 18.1819 4.9587 11.5703 0 0 0 6.26769e-10 -3.26446e-10 0.0291508
322 1 21.4877 4.9587 11.5703 0 0 0 -2.46018e-10 -1.24773e-10 0.0291508
404 1 18.1819 1.6529 14.8761 0 0 0 -0.000207442 -5.98361e-06 -0.0699845
405 1 19.8348 2.6723e-19 13.2232 0 0 0 3.37885e-09 8.29837e-09 0.0600227
406 1 21.4877 1.6529 14.8761 0 0 0 0.000214337 -9.8593e-06 -0.0698073
418 1 18.1819 4.9587 14.8761 0 0 0 -0.000214015 -5.37944e-06 -0.0699691
419 1 19.8348 3.3058 13.2232 0 0 0 4.34768e-09 2.07646e-09 0.0600227
420 1 21.4877 4.9587 14.8761 0 0 0 0.000222541 -1.10911e-05 -0.0697818
324 1 1.6529 8.2645 11.5703 0 0 0 1.61361e-09 2.21498e-11 0.0291508
326 1 4.9587 8.2645 11.5703 0 0 0 -3.90994e-10 -4.81602e-10 0.0291508
421 1 1.68719e-19 6.6116 13.2232 0 0 0 1.24273e-08 -1.86365e-10 0.0600227
422 1 1.6529 8.2645 14.8761 0 0 0 -1.91572e-05 4.49916e-05 -0.0693233
423 1 3.3058 6.6116 13.2232 0 0 0 2.0056e-09 -4.64926e-10 0.0600227
424 1 4.9587 8.2645 14.8761 0 0 0 -5.47035e-05 -2.91255e-05 -0.0692497
435 1 0 9.9174 13.2232 0 0 0 1.1804e-08 8.57537e-10 0.0600227
437 1 3.3058 9.9174 13.2232 0 0 0 2.76734e-09 -5.30823e-11 0.0600227
436 1 1.6529 11.5703 14.8761 0 0 0 -1.88802e-05 -2.57508e-05 -0.0693188
328 1 8.2645 8.2645 11.5703 0 0 0 1.74366e-10 1.74365e-10 0.0291508
425 1 6.6116 6.6116 13.2232 0 0 0 6.05178e-10 6.05178e-10 0.0600227
426 1 8.2645 8.2645 14.8761 0 0 0 -3.0095e-05 -3.0095e-05 -0.0691429
427 1 9.9174 6.6116 13.2232 0 0 0 -4.29835e-10 1.75527e-09 0.0600227
439 1 6.6116 9.9174 13.2232 0 0 0 1.75527e-09 -4.29835e-10 0.0600227
441 1 9.9174 9.9174 13.2232 0 0 0 6.03064e-10 6.03064e-10 0.0600227
330 1 11.5703 8.2645 11.5703 0 0 0 4.94986e-10 5.76919e-10 0.0291508
332 1 14.8761 8.2645 11.5703 0 0 0 -2.25955e-09 -4.77087e-10 0.0291508
428 1 11.5703 8.2645 14.8761 0 0 0 4.71202e-05 -3.01242e-05 -0.0691549
429 1 13.2232 6.6116 13.2232 0 0 0 -3.35128e-09 6.25805e-10 0.0600227
430 1 14.8761 8.2645 14.8761 0 0 0 6.22639e-05 -2.97636e-05 -0.0692697
431 1 16.529 6.6116 13.2232 0 0 0 -1.68878e-08 -6.36144e-10 0.0600227
443 1 13.2232 9.9174 13.2232 0 0 0 -4.53986e-09 -4.17178e-10 0.0600227
445 1 16.529 9.9174 13.2232 0 0 0 -1.66642e-08 -3.79599e-10 0.0600227
334 1 18.1819 8.2645 11.5703 0 0 0 6.5364e-10 3.22729e-11 0.0291508
336 1 21.4877 8.2645 11.5703 0 0 0 -1.87342e-10 -1.69888e-10 0.0291508
432 1 18.1819 8.2645 14.8761 0 0 0 -0.00021526 2.09823e-05 -0.0699662
433 1 19.8348 6.6116 13.2232 0 0 0 5.16672e-09 -2.81855e-10 0.0600227
434 1 21.4877 8.2645 14.8761 0 0 0 0.000225288 2.55012e-05 -0.0697733
447 1 19.8348 9.9174 13.2232 0 0 0 5.28569e-09 8.15405e-10 0.0600227
446 1 18.1819 11.5703 14.8761 0 0 0 -0.00021623 -1.25871e-05 -0.0699639
448 1 21.4877 11.5703 14.8761 0 0 0 0.000226028 -1.36854e-05 -0.069771
338 1 1.6529 11.5703 11.5703 0 0 0 1.18947e-09 6.76938e-10 0.0291508
340 1 4.9587 11.5703 11.5703 0 0 0 -4.99781e-10 6.92001e-10 0.0291508
352 1 1.6529 14.8761 11.5703 0 0 0 1.10941e-09 -1.73266e-09 0.0291508
354 1 4.9587 14.8761 11.5703 0 0 0 -4.10092e-10 -1.84196e-09 0.0291508