ITEM: TIMESTEP
101
ITEM: NUMBER OF ATOMS
690
ITEM: BOX BOUNDS pp pp ff
0.0000000000000000e+00 2.3140599999999999e+01
0.0000000000000000e+00 2.3140599999999999e+01
0.0000000000000000e+00 5.0000000000000000e+01
ITEM: ATOMS id type xs ys zs
1 1 1.50687e-19 6.61541e-19 0.000144467
2 1 0.0714286 0.0714286 0.032935
3 1 0.142857 1.13499e-18 0.000144467
4 1 0.214286 0.0714286 0.032935
15 1 7.46014e-19 0.142857 0.000144467
16 1 0.0714286 0.214286 0.032935
17 1 0.142857 0.142857 0.000144467
18 1 0.214286 0.214286 0.032935
100 1 0.0714286 0.0714286 0.0991843
102 1 0.214286 0.0714286 0.0991843
114 1 0.0714286 0.214286 0.0991843
115 1 0.142857 0.142857 0.0660562
116 1 0.214286 0.214286 0.0991843
5 1 0.285714 1.43939e-18 0.000144467
6 1 0.357143 0.0714286 0.032935
7 1 0.428571 1.52484e-18 0.000144467
19 1 0.285714 0.142857 0.000144467
20 1 0.357143 0.214286 0.032935
21 1 0.428571 0.142857 0.000144467
104 1 0.357143 0.0714286 0.0991843
117 1 0.285714 0.142857 0.0660562
118 1 0.357143 0.214286 0.0991843
119 1 0.428571 0.142857 0.0660562
120 1 0.5 0.214286 0.0991843
8 1 0.5 0.0714286 0.032935
9 1 0.571429 1.30725e-18 0.000144467
10 1 0.642857 0.0714286 0.032935
11 1 0.714286 7.21582e-19 0.000144467
22 1 0.5 0.214286 0.032935
23 1 0.571429 0.142857 0.000144467
24 1 0.642857 0.214286 0.032935
25 1 0.714286 0.142857 0.000144467
106 1 0.5 0.0714286 0.0991843
108 1 0.642857 0.0714286 0.0991843
121 1 0.571429 0.142857 0.0660562
122 1 0.642857 0.214286 0.0991843
123 1 0.714286 0.142857 0.0660562
113 1 1 0.142857 0.0660562
12 1 0.785714 0.0714286 0.032935
13 1 0.857143 1.12028e-18 0.000144467
14 1 0.928571 0.0714286 0.032935
26 1 0.785714 0.214286 0.032935
27 1 0.857143 0.142857 0.000144467
28 1 0.928571 0.214286 0.032935
110 1 0.785714 0.0714286 0.0991843
112 1 0.928571 0.0714286 0.0991843
124 1 0.785714 0.214286 0.0991843
125 1 0.857143 0.142857 0.0660562
126 1 0.928571 0.214286 0.0991843
29 1 5.37509e-19 0.285714 0.000144467
30 1 0.0714286 0.357143 0.032935
31 1 0.142857 0.285714 0.000144467
32 1 0.214286 0.357143 0.032935
43 1 1.37e-19 0.428571 0.000144467
45 1 0.142857 0.428571 0.000144467
128 1 0.0714286 0.357143 0.0991843
129 1 0.142857 0.285714 0.0660562
130 1 0.214286 0.357143 0.0991843
143 1 0.142857 0.428571 0.0660562
144 1 0.214286 0.5 0.0991843
33 1 0.285714 0.285714 0.000144467
34 1 0.357143 0.357143 0.032935
35 1 0.428571 0.285714 0.000144467
47 1 0.285714 0.428571 0.000144467
49 1 0.428571 0.428571 0.000144467
131 1 0.285714 0.285714 0.0660562
132 1 0.357143 0.357143 0.0991843
133 1 0.428571 0.285714 0.0660562
145 1 0.285714 0.428571 0.0660562
147 1 0.428571 0.428571 0.0660562
134 1 0.5 0.357143 0.0991843
146 1 0.357143 0.5 0.0991843
36 1 0.5 0.357143 0.032935
37 1 0.571429 0.285714 0.000144467
38 1 0.642857 0.357143 0.032935
39 1 0.714286 0.285714 0.000144467
51 1 0.571429 0.428571 0.000144467
53 1 0.714286 0.428571 0.000144467
135 1 0.571429 0.285714 0.0660562
136 1 0.642857 0.357143 0.0991843
137 1 0.714286 0.285714 0.0660562
149 1 0.571429 0.428571 0.0660562
151 1 0.714286 0.428571 0.0660562
150 1 0.642857 0.5 0.0991843
127 1 1 0.285714 0.0660562
141 1 1 0.428571 0.0660562
40 1 0.785714 0.357143 0.032935
41 1 0.857143 0.285714 0.000144467
42 1 0.928571 0.357143 0.032935
55 1 0.857143 0.428571 0.000144467
138 1 0.785714 0.357143 0.0991843
139 1 0.857143 0.285714 0.0660562
140 1 0.928571 0.357143 0.0991843
153 1 0.857143 0.428571 0.0660562
152 1 0.785714 0.5 0.0991843
44 1 0.0714286 0.5 0.032935
46 1 0.214286 0.5 0.032935
57 1 1.4369e-18 0.571429 0.000144467
58 1 0.0714286 0.642857 0.032935
59 1 0.142857 0.571429 0.000144467
60 1 0.214286 0.642857 0.032935
71 1 6.47582e-19 0.714286 0.000144467
73 1 0.142857 0.714286 0.000144467
142 1 0.0714286 0.5 0.0991843
156 1 0.0714286 0.642857 0.0991843
157 1 0.142857 0.571429 0.0660562
158 1 0.214286 0.642857 0.0991843
171 1 0.142857 0.714286 0.0660562
48 1 0.357143 0.5 0.032935
61 1 0.285714 0.571429 0.000144467
62 1 0.357143 0.642857 0.032935
63 1 0.428571 0.571429 0.000144467
75 1 0.285714 0.714286 0.000144467
77 1 0.428571 0.714286 0.000144467
159 1 0.285714 0.571429 0.0660562
160 1 0.357143 0.642857 0.0991843
161 1 0.428571 0.571429 0.0660562
173 1 0.285714 0.714286 0.0660562
175 1 0.428571 0.714286 0.0660562
162 1 0.5 0.642857 0.0991843
50 1 0.5 0.5 0.032935
52 1 0.642857 0.5 0.032935
64 1 0.5 0.642857 0.032935
65 1 0.571429 0.571429 0.000144467
66 1 0.642857 0.642857 0.032935
67 1 0.714286 0.571429 0.000144467
79 1 0.571429 0.714286 0.000144467
81 1 0.714286 0.714286 0.000144467
148 1 0.5 0.5 0.0991843
163 1 0.571429 0.571429 0.0660562
164 1 0.642857 0.642857 0.0991843
165 1 0.714286 0.571429 0.0660562
177 1 0.571429 0.714286 0.0660562
179 1 0.714286 0.714286 0.0660562
155 1 1 0.571429 0.0660562
169 1 1 0.714286 0.0660562
54 1 0.785714 0.5 0.032935
56 1 0.928571 0.5 0.032935
68 1 0.785714 0.642857 0.032935
69 1 0.857143 0.571429 0.000144467
70 1 0.928571 0.642857 0.032935
83 1 0.857143 0.714286 0.000144467
154 1 0.928571 0.5 0.0991843
166 1 0.785714 0.642857 0.0991843
167 1 0.857143 0.571429 0.0660562
168 1 0.928571 0.642857 0.0991843
181 1 0.857143 0.714286 0.0660562
101 1 0.142857 1 0.0660562
72 1 0.0714286 0.785714 0.032935
74 1 0.214286 0.785714 0.032935
85 1 1.48192e-18 0.857143 0.000144467
86 1 0.0714286 0.928571 0.032935
87 1 0.142857 0.857143 0.000144467
88 1 0.214286 0.928571 0.032935
170 1 0.0714286 0.785714 0.0991843
172 1 0.214286 0.785714 0.0991843
184 1 0.0714286 0.928571 0.0991843
185 1 0.142857 0.857143 0.0660562
186 1 0.214286 0.928571 0.0991843
103 1 0.285714 1 0.0660562
105 1 0.428571 1 0.0660562
76 1 0.357143 0.785714 0.032935
89 1 0.285714 0.857143 0.000144467
90 1 0.357143 0.928571 0.032935
91 1 0.428571 0.857143 0.000144467
174 1 0.357143 0.785714 0.0991843
187 1 0.285714 0.857143 0.0660562
188 1 0.357143 0.928571 0.0991843
189 1 0.428571 0.857143 0.0660562
176 1 0.5 0.785714 0.0991843
107 1 0.571429 1 0.0660562
109 1 0.714286 1 0.0660562
78 1 0.5 0.785714 0.032935
80 1 0.642857 0.785714 0.032935
92 1 0.5 0.928571 0.032935
93 1 0.571429 0.857143 0.000144467
94 1 0.642857 0.928571 0.032935
95 1 0.714286 0.857143 0.000144467
178 1 0.642857 0.785714 0.0991843
190 1 0.5 0.928571 0.0991843
191 1 0.571429 0.857143 0.0660562
192 1 0.642857 0.928571 0.0991843
193 1 0.714286 0.857143 0.0660562
99 1 1 1 0.0660562
111 1 0.857143 1 0.0660562
183 1 1 0.857143 0.0660562
82 1 0.785714 0.785714 0.032935
84 1 0.928571 0.785714 0.032935
96 1 0.785714 0.928571 0.032935
97 1 0.857143 0.857143 0.000144467
98 1 0.928571 0.928571 0.032935
180 1 0.785714 0.785714 0.0991843
182 1 0.928571 0.785714 0.0991843
194 1 0.785714 0.928571 0.0991843
195 1 0.857143 0.857143 0.0660562
196 1 0.928571 0.928571 0.0991843
197 1 1.77008e-14 1.76964e-14 0.132234
198 1 0.0714286 0.0714286 0.165288
199 1 0.142857 1.59397e-13 0.132234
200 1 0.214286 0.0714286 0.165288
211 1 1.59398e-13 0.142857 0.132234
212 1 0.0714286 0.214286 0.165288
213 1 0.142857 0.142857 0.132234
214 1 0.214286 0.214286 0.165288
295 1 8.22271e-12 8.22271e-12 0.198338
297 1 0.142857 1.05422e-11 0.198338
309 1 1.05422e-11 0.142857 0.198338
311 1 0.142857 0.142857 0.198338
202 1 0.357143 0.0714286 0.165288
215 1 0.285714 0.142857 0.132234
216 1 0.357143 0.214286 0.165288
217 1 0.428571 0.142857 0.132234
299 1 0.285714 1.06217e-11 0.198338
301 1 0.428571 1.09188e-11 0.198338
313 1 0.285714 0.142857 0.198338
315 1 0.428571 0.142857 0.198338
204 1 0.5 0.0714286 0.165288
205 1 0.571429 1.74368e-13 0.132234
206 1 0.642857 0.0714286 0.165288
218 1 0.5 0.214286 0.165288
219 1 0.571429 0.142857 0.132234
220 1 0.642857 0.214286 0.165288
221 1 0.714286 0.142857 0.132234
303 1 0.571429 1.09013e-11 0.198338
305 1 0.714286 7.30268e-12 0.198338
317 1 0.571429 0.142857 0.198338
319 1 0.714286 0.142857 0.198338
208 1 0.785714 0.0714286 0.165288
210 1 0.928571 0.0714286 0.165288
222 1 0.785714 0.214286 0.165288
223 1 0.857143 0.142857 0.132234
224 1 0.928571 0.214286 0.165288
307 1 0.857143 5.94154e-12 0.198338
321 1 0.857143 0.142857 0.198338
226 1 0.0714286 0.357143 0.165288
227 1 0.142857 0.285714 0.132234
228 1 0.214286 0.357143 0.165288
241 1 0.142857 0.428571 0.132234
323 1 1.06217e-11 0.285714 0.198338
325 1 0.142857 0.285714 0.198338
337 1 1.09188e-11 0.428571 0.198338
339 1 0.142857 0.428571 0.198338
229 1 0.285714 0.285714 0.132234
230 1 0.357143 0.357143 0.165288
231 1 0.428571 0.285714 0.132234
243 1 0.285714 0.428571 0.132234
245 1 0.428571 0.428571 0.132234
327 1 0.285714 0.285714 0.198338
329 1 0.428571 0.285714 0.198338
341 1 0.285714 0.428571 0.198338
343 1 0.428571 0.428571 0.198338
232 1 0.5 0.357143 0.165288
233 1 0.571429 0.285714 0.132234
234 1 0.642857 0.357143 0.165288
235 1 0.714286 0.285714 0.132234
247 1 0.571429 0.428571 0.132234
249 1 0.714286 0.428571 0.132234
331 1 0.571429 0.285714 0.198338
333 1 0.714286 0.285714 0.198338
345 1 0.571429 0.428571 0.198338
347 1 0.714286 0.428571 0.198338
225 1 1 0.285714 0.132234
239 1 1 0.428571 0.132234
236 1 0.785714 0.357143 0.165288
237 1 0.857143 0.285714 0.132234
238 1 0.928571 0.357143 0.165288
251 1 0.857143 0.428571 0.132234
335 1 0.857143 0.285714 0.198338
349 1 0.857143 0.428571 0.198338
240 1 0.0714286 0.5 0.165288
242 1 0.214286 0.5 0.165288
253 1 1.7437e-13 0.571429 0.132234
254 1 0.0714286 0.642857 0.165288
255 1 0.142857 0.571429 0.132234
256 1 0.214286 0.642857 0.165288
269 1 0.142857 0.714286 0.132234
351 1 1.09013e-11 0.571429 0.198338
353 1 0.142857 0.571429 0.198338
365 1 7.30268e-12 0.714286 0.198338
367 1 0.142857 0.714286 0.198338
244 1 0.357143 0.5 0.165288
257 1 0.285714 0.571429 0.132234
258 1 0.357143 0.642857 0.165288
259 1 0.428571 0.571429 0.132234
271 1 0.285714 0.714286 0.132234
273 1 0.428571 0.714286 0.132234
355 1 0.285714 0.571429 0.198338
357 1 0.428571 0.571429 0.198338
369 1 0.285714 0.714286 0.198338
371 1 0.428571 0.714286 0.198338
246 1 0.5 0.5 0.165288
248 1 0.642857 0.5 0.165288
260 1 0.5 0.642857 0.165288
261 1 0.571429 0.571429 0.132234
262 1 0.642857 0.642857 0.165288
263 1 0.714286 0.571429 0.132234
275 1 0.571429 0.714286 0.132234
277 1 0.714286 0.714286 0.132234
359 1 0.571429 0.571429 0.198338
361 1 0.714286 0.571429 0.198338
373 1 0.571429 0.714286 0.198338
375 1 0.714286 0.714286 0.198338
267 1 1 0.714286 0.132234
250 1 0.785714 0.5 0.165288
252 1 0.928571 0.5 0.165288
264 1 0.785714 0.642857 0.165288
265 1 0.857143 0.571429 0.132234
266 1 0.928571 0.642857 0.165288
279 1 0.857143 0.714286 0.132234
363 1 0.857143 0.571429 0.198338
377 1 0.857143 0.714286 0.198338
268 1 0.0714286 0.785714 0.165288
270 1 0.214286 0.785714 0.165288
282 1 0.0714286 0.928571 0.165288
283 1 0.142857 0.857143 0.132234
284 1 0.214286 0.928571 0.165288
379 1 5.94154e-12 0.857143 0.198338
381 1 0.142857 0.857143 0.198338
201 1 0.285714 1 0.132234
203 1 0.428571 1 0.132234
272 1 0.357143 0.785714 0.165288
285 1 0.285714 0.857143 0.132234
286 1 0.357143 0.928571 0.165288
287 1 0.428571 0.857143 0.132234
383 1 0.285714 0.857143 0.198338
385 1 0.428571 0.857143 0.198338
207 1 0.714286 1 0.132234
274 1 0.5 0.785714 0.165288
276 1 0.642857 0.785714 0.165288
288 1 0.5 0.928571 0.165288
289 1 0.571429 0.857143 0.132234
290 1 0.642857 0.928571 0.165288
291 1 0.714286 0.857143 0.132234
387 1 0.571429 0.857143 0.198338
389 1 0.714286 0.857143 0.198338
209 1 0.857143 1 0.132234
281 1 1 0.857143 0.132234
278 1 0.785714 0.785714 0.165288
280 1 0.928571 0.785714 0.165288
292 1 0.785714 0.928571 0.165288
293 1 0.857143 0.857143 0.132234
294 1 0.928571 0.928571 0.165288
391 1 0.857143 0.857143 0.198338
296 1 0.0714286 0.0714286 0.231466
298 1 0.214286 0.0714286 0.231466
310 1 0.0714286 0.214286 0.231466
312 1 0.214286 0.214286 0.231466
393 1 3.89449e-11 3.89449e-11 0.264587
394 1 0.0714285 0.0714285 0.29738
395 1 0.142857 5.33239e-11 0.264587
396 1 0.214286 0.0714285 0.29738
407 1 5.33239e-11 0.142857 0.264587
408 1 0.0714285 0.214286 0.29738
409 1 0.142857 0.142857 0.264587
410 1 0.214286 0.214286 0.29738
300 1 0.357143 0.0714286 0.231466
314 1 0.357143 0.214286 0.231466
397 1 0.285714 5.47775e-11 0.264587
398 1 0.357143 0.0714285 0.29738
399 1 0.428571 5.20302e-11 0.264587
411 1 0.285714 0.142857 0.264587
412 1 0.357143 0.214285 0.29738
413 1 0.428571 0.142857 0.264587
400 1 0.5 0.0714285 0.29738
302 1 0.5 0.0714286 0.231466
304 1 0.642857 0.0714286 0.231466
316 1 0.5 0.214286 0.231466
318 1 0.642857 0.214286 0.231466
401 1 0.571429 5.30434e-11 0.264587
402 1 0.642857 0.0714285 0.29738
403 1 0.714286 3.68867e-11 0.264587
414 1 0.5 0.214286 0.29738
415 1 0.571429 0.142857 0.264587
416 1 0.642857 0.214286 0.29738
417 1 0.714286 0.142857 0.264587
306 1 0.785714 0.0714286 0.231466
308 1 0.928571 0.0714286 0.231466
320 1 0.785714 0.214286 0.231466
322 1 0.928571 0.214286 0.231466
404 1 0.785713 0.0714285 0.297379
405 1 0.857143 3.65779e-11 0.264587
406 1 0.928572 0.0714285 0.297379
418 1 0.785713 0.214286 0.297379
419 1 0.857143 0.142857 0.264587
420 1 0.928572 0.214286 0.297379
324 1 0.0714286 0.357143 0.231466
326 1 0.214286 0.357143 0.231466
421 1 5.47775e-11 0.285714 0.264587
422 1 0.0714285 0.357143 0.29738
423 1 0.142857 0.285714 0.264587
424 1 0.214285 0.357143 0.29738
435 1 5.20302e-11 0.428571 0.264587
437 1 0.142857 0.428571 0.264587
436 1 0.0714285 0.5 0.29738
328 1 0.357143 0.357143 0.231466
425 1 0.285714 0.285714 0.264587
426 1 0.357143 0.357143 0.29738
427 1 0.428571 0.285714 0.264587
439 1 0.285714 0.428571 0.264587
441 1 0.428571 0.428571 0.264587
330 1 0.5 0.357143 0.231466
332 1 0.642857 0.357143 0.231466
428 1 0.5 0.357143 0.29738
429 1 0.571429 0.285714 0.264587
430 1 0.642857 0.357143 0.29738
431 1 0.714286 0.285714 0.264587
443 1 0.571429 0.428571 0.264587
445 1 0.714286 0.428571 0.264587
334 1 0.785714 0.357143 0.231466
336 1 0.928571 0.357143 0.231466
432 1 0.785713 0.357143 0.297379
433 1 0.857143 0.285714 0.264587
434 1 0.928572 0.357143 0.297379
447 1 0.857143 0.428571 0.264587
446 1 0.785713 0.5 0.297379
448 1 0.928572 0.5 0.297379
338 1 0.0714286 0.5 0.231466
340 1 0.214286 0.5 0.231466
352 1 0.0714286 0.642857 0.231466
354 1 0.214286 0.642857 0.231466
438 1 0.214286 0.5 0.29738
449 1 5.30434e-11 0.571429 0.264587
450 1 0.0714285 0.642857 0.29738
451 1 0.142857 0.571429 0.264587
452 1 0.214286 0.642857 0.29738
463 1 3.68867e-11 0.714286 0.264587
465 1 0.142857 0.714286 0.264587
342 1 0.357143 0.5 0.231466
356 1 0.357143 0.642857 0.231466
440 1 0.357143 0.5 0.29738
453 1 0.285714 0.571429 0.264587
454 1 0.357143 0.642857 0.29738
455 1 0.428571 0.571429 0.264587
467 1 0.285714 0.714286 0.264587
469 1 0.428571 0.714286 0.264587
344 1 0.5 0.5 0.231466
346 1 0.642857 0.5 0.231466
358 1 0.5 0.642857 0.231466
360 1 0.642857 0.642857 0.231466
442 1 0.5 0.5 0.29738
444 1 0.642857 0.5 0.29738
456 1 0.5 0.642857 0.29738
457 1 0.571429 0.571429 0.264587
458 1 0.642857 0.642857 0.29738
459 1 0.714286 0.571429 0.264587
471 1 0.571429 0.714286 0.264587
473 1 0.714286 0.714286 0.264587
348 1 0.785714 0.5 0.231466
350 1 0.928571 0.5 0.231466
362 1 0.785714 0.642857 0.231466
364 1 0.928571 0.642857 0.231466
460 1 0.785713 0.642857 0.297379
461 1 0.857143 0.571429 0.264587
462 1 0.928572 0.642857 0.297379
475 1 0.857143 0.714286 0.264587
366 1 0.0714286 0.785714 0.231466
368 1 0.214286 0.785714 0.231466
380 1 0.0714286 0.928571 0.231466
382 1 0.214286 0.928571 0.231466
464 1 0.0714285 0.785713 0.297379
466 1 0.214286 0.785713 0.297379
477 1 3.65779e-11 0.857143 0.264587
478 1 0.0714285 0.928572 0.297379
479 1 0.142857 0.857143 0.264587
480 1 0.214286 0.928572 0.297379
370 1 0.357143 0.785714 0.231466
384 1 0.357143 0.928571 0.231466
468 1 0.357143 0.785713 0.297379
481 1 0.285714 0.857143 0.264587
482 1 0.357143 0.928572 0.297379
483 1 0.428571 0.857143 0.264587
470 1 0.5 0.785713 0.297379
484 1 0.5 0.928572 0.297379
372 1 0.5 0.785714 0.231466
374 1 0.642857 0.785714 0.231466
386 1 0.5 0.928571 0.231466
388 1 0.642857 0.928571 0.231466
472 1 0.642857 0.785713 0.297379
485 1 0.571429 0.857143 0.264587
486 1 0.642857 0.928572 0.297379
487 1 0.714286 0.857143 0.264587
376 1 0.785714 0.785714 0.231466
378 1 0.928571 0.785714 0.231466
390 1 0.785714 0.928571 0.231466
392 1 0.928571 0.928571 0.231466
474 1 0.785714 0.785714 0.297378
476 1 0.928572 0.785714 0.297378
488 1 0.785714 0.928572 0.297378
489 1 0.857143 0.857143 0.264587
490 1 0.928572 0.928572 0.297378
491 2 0.00454936 0.00454936 0.394566
492 2 0.173132 0.0063644 0.395617
496 2 0.0063644 0.173132 0.395617
497 2 0.173799 0.173799 0.396152
493 2 0.345762 0.00629399 0.395195
498 2 0.345858 0.1737 0.395839
494 2 0.517925 0.00632801 0.395216
495 2 0.687069 0.00461443 0.394586
499 2 0.517614 0.173705 0.395881
500 2 0.685056 0.173489 0.395392
501 2 0.00629399 0.345762 0.395195
502 2 0.1737 0.345858 0.395839
503 2 0.345661 0.345661 0.395979
504 2 0.517749 0.34565 0.395998
505 2 0.684969 0.345837 0.394948
506 2 0.00632801 0.517925 0.395216
507 2 0.173705 0.517614 0.395881
511 2 0.00461443 0.687069 0.394586
512 2 0.173489 0.685056 0.395392
508 2 0.34565 0.517749 0.395998
513 2 0.345837 0.684969 0.394948
509 2 0.517745 0.517745 0.396041
510 2 0.684947 0.517874 0.394981
514 2 0.517874 0.684947 0.394981
515 2 0.686913 0.686913 0.394653
516 2 0.00631605 0.00631605 0.479558
517 2 0.173589 0.00803786 0.479683
521 2 0.00803786 0.173589 0.479683
522 2 0.173835 0.173835 0.479727
518 2 0.34571 0.00796765 0.479626
523 2 0.34571 0.173826 0.479691
519 2 0.517834 0.0080348 0.479648
520 2 0.685118 0.00631162 0.479566
524 2 0.517585 0.173845 0.479703
525 2 0.683392 0.173587 0.47967
526 2 0.00796765 0.34571 0.479626
527 2 0.173826 0.34571 0.479691
528 2 0.345714 0.345714 0.479695
529 2 0.517598 0.345714 0.479706
530 2 0.683455 0.345708 0.479609
531 2 0.0080348 0.517834 0.479648
532 2 0.173845 0.517585 0.479703
536 2 0.00631162 0.685118 0.479566
537 2 0.173587 0.683392 0.47967
533 2 0.345714 0.517598 0.479706
538 2 0.345708 0.683455 0.479609
534 2 0.517579 0.517579 0.479717
535 2 0.683388 0.517839 0.47963
539 2 0.517839 0.683388 0.47963
540 2 0.685121 0.685121 0.479587
541 2 0.00637983 0.00637983 0.55998
542 2 0.173554 0.00812092 0.559988
546 2 0.00812092 0.173554 0.559988
547 2 0.173828 0.173828 0.55999
566 2 0.00638361 0.00638361 0.639999
567 2 0.173549 0.00812681 0.64
571 2 0.00812681 0.173549 0.64
572 2 0.173825 0.173825 0.64
543 2 0.345712 0.00802986 0.559983
548 2 0.345713 0.173812 0.559987
568 2 0.345713 0.00803191 0.64
573 2 0.345713 0.173811 0.64
544 2 0.517871 0.00812074 0.559986
545 2 0.685046 0.00637933 0.55998
549 2 0.517597 0.173828 0.559989
550 2 0.683305 0.173554 0.559987
569 2 0.517876 0.0081268 0.64
570 2 0.685042 0.0063836 0.639999
574 2 0.517601 0.173825 0.64
575 2 0.683299 0.173549 0.64
551 2 0.00802986 0.345712 0.559983
552 2 0.173812 0.345713 0.559987
576 2 0.00803191 0.345713 0.64
577 2 0.173811 0.345713 0.64
553 2 0.345713 0.345713 0.559987
578 2 0.345713 0.345713 0.64
554 2 0.517614 0.345713 0.559988
555 2 0.683395 0.345712 0.559982
579 2 0.517614 0.345713 0.64
580 2 0.683394 0.345713 0.64
556 2 0.00812074 0.517871 0.559986
557 2 0.173828 0.517597 0.559989
561 2 0.00637933 0.685046 0.55998
562 2 0.173554 0.683305 0.559987
581 2 0.0081268 0.517876 0.64
582 2 0.173825 0.517601 0.64
586 2 0.0063836 0.685042 0.639999
587 2 0.173549 0.683299 0.64
558 2 0.345713 0.517614 0.559988
563 2 0.345712 0.683395 0.559982
583 2 0.345713 0.517614 0.64
588 2 0.345713 0.683394 0.64
559 2 0.517597 0.517597 0.55999
560 2 0.683305 0.517872 0.559985
564 2 0.517872 0.683305 0.559985
565 2 0.685046 0.685046 0.559982
584 2 0.5176 0.5176 0.64
585 2 0.683299 0.517876 0.64
589 2 0.517876 0.683299 0.64
590 2 0.685042 0.685042 0.64
591 2 0.0063837 0.0063837 0.72
592 2 0.173549 0.00812691 0.72
596 2 0.00812691 0.173549 0.72
597 2 0.173825 0.173825 0.72
593 2 0.345713 0.00803201 0.72
598 2 0.345713 0.173811 0.72
594 2 0.517876 0.00812691 0.72
595 2 0.685042 0.0063837 0.72
599 2 0.517601 0.173825 0.72
600 2 0.683299 0.173549 0.72
601 2 0.00803201 0.345713 0.72
602 2 0.173811 0.345713 0.72
603 2 0.345713 0.345713 0.72
604 2 0.517614 0.345713 0.72
605 2 0.683393 0.345713 0.72
606 2 0.00812691 0.517876 0.72
607 2 0.173825 0.517601 0.72
611 2 0.0063837 0.685042 0.72
612 2 0.173549 0.683299 0.72
608 2 0.345713 0.517614 0.72
613 2 0.345713 0.683393 0.72
609 2 0.517601 0.517601 0.72
610 2 0.683299 0.517876 0.72
614 2 0.517876 0.683299 0.72
615 2 0.685042 0.685042 0.72
616 2 0.00638927 0.00638927 0.799992
617 2 0.173548 0.00813174 0.799987
621 2 0.00813174 0.173548 0.799987
622 2 0.173823 0.173823 0.799983
641 2 0.00647608 0.00647608 0.879775
642 2 0.173568 0.00823406 0.87967
646 2 0.00823406 0.173568 0.87967
647 2 0.17384 0.17384 0.879545
618 2 0.345713 0.00803454 0.799987
623 2 0.345713 0.173812 0.799983
643 2 0.345713 0.00813657 0.879681
648 2 0.345713 0.173821 0.879553
619 2 0.517878 0.00813174 0.799987
620 2 0.685036 0.00638927 0.799992
624 2 0.517603 0.173823 0.799983
625 2 0.683294 0.173548 0.799987
644 2 0.517857 0.00823406 0.87967
645 2 0.684949 0.00647608 0.879775
649 2 0.517586 0.17384 0.879545
650 2 0.683191 0.173568 0.87967
626 2 0.00803454 0.345713 0.799987
627 2 0.173812 0.345713 0.799983
651 2 0.00813657 0.345713 0.879681
652 2 0.173821 0.345713 0.879553
628 2 0.345713 0.345713 0.799983
653 2 0.345713 0.345713 0.879557
629 2 0.517614 0.345713 0.799983
630 2 0.683391 0.345713 0.799987
654 2 0.517605 0.345713 0.879553
655 2 0.683289 0.345713 0.879681
631 2 0.00813174 0.517878 0.799987
632 2 0.173823 0.517603 0.799983
636 2 0.00638927 0.685036 0.799992
637 2 0.173548 0.683294 0.799987
656 2 0.00823406 0.517857 0.87967
657 2 0.17384 0.517586 0.879545
661 2 0.00647608 0.684949 0.879775
662 2 0.173568 0.683191 0.87967
633 2 0.345713 0.517614 0.799983
638 2 0.345713 0.683391 0.799987
658 2 0.345713 0.517605 0.879553
663 2 0.345713 0.683289 0.879681
634 2 0.517603 0.517603 0.799983
635 2 0.683294 0.517878 0.799987
639 2 0.517878 0.683294 0.799987
640 2 0.685036 0.685036 0.799992
659 2 0.517586 0.517586 0.879545
660 2 0.683191 0.517857 0.87967
664 2 0.517857 0.683191 0.87967
665 2 0.684949 0.684949 0.879775
666 2 0.00470601 0.00470601 0.957822
667 2 0.173342 0.00647612 0.957003
671 2 0.00647612 0.173342 0.957003
672 2 0.173568 0.173568 0.956189
668 2 0.345713 0.00639489 0.95704
673 2 0.345713 0.173546 0.956234
669 2 0.518083 0.00647612 0.957003
670 2 0.686719 0.00470601 0.957822
674 2 0.517857 0.173568 0.956189
675 2 0.684949 0.173342 0.957003
676 2 0.00639489 0.345713 0.95704
677 2 0.173546 0.345713 0.956234
678 2 0.345713 0.345713 0.95628
679 2 0.51788 0.345713 0.956234
680 2 0.685031 0.345713 0.95704
681 2 0.00647612 0.518083 0.957003
682 2 0.173568 0.517857 0.956189
686 2 0.00470601 0.686719 0.957822
687 2 0.173342 0.684949 0.957003
683 2 0.345713 0.51788 0.956234
688 2 0.345713 0.685031 0.95704
684 2 0.517857 0.517857 0.956189
685 2 0.684949 0.518083 0.957003
689 2 0.518083 0.684949 0.957003
690 2 0.686719 0.686719 0.957822
