ITEM: TIMESTEP
0
ITEM: NUMBER OF ATOMS
2100
ITEM: BOX BOUNDS pp pp ff
0.0000000000000000e+00 3.3058000000000000e+01
0.0000000000000000e+00 3.3058000000000000e+01
0.0000000000000000e+00 1.0000000000000000e+02
ITEM: ATOMS id type x y z fx fy fz vx vy vz
1 1 0 2.07383e-19 16.529 0 0 0 -1.24266e-11 1.40647e-12 0.0703762
3 1 3.3058 1.9093e-19 16.529 0 0 0 -3.22941e-12 -4.58257e-13 0.0703762
21 1 2.70838e-19 3.3058 16.529 0 0 0 5.15332e-12 -1.50841e-11 0.0703762
23 1 3.3058 3.3058 16.529 0 0 0 -2.7507e-12 1.67824e-11 0.0703762
5 1 6.6116 1.28759e-19 16.529 0 0 0 6.83151e-12 -1.4414e-13 0.0703762
25 1 6.6116 3.3058 16.529 0 0 0 -5.32142e-12 -1.82029e-12 0.0703762
7 1 9.9174 1.68719e-19 16.529 0 0 0 1.17237e-11 -2.84683e-13 0.0703762
27 1 9.9174 3.3058 16.529 0 0 0 -1.50486e-11 -3.51884e-12 0.0703762
9 1 13.2232 1.15439e-19 16.529 0 0 0 1.02337e-12 1.09613e-12 0.0703762
29 1 13.2232 3.3058 16.529 0 0 0 5.04068e-14 -1.4607e-12 0.0703762
11 1 16.529 8.58393e-20 16.529 0 0 0 -1.43078e-11 -5.49416e-13 0.0703762
13 1 19.8348 0 16.529 0 0 0 -6.76182e-12 4.48973e-13 0.0703762
31 1 16.529 3.3058 16.529 0 0 0 1.22689e-11 -7.37464e-12 0.0703762
33 1 19.8348 3.3058 16.529 0 0 0 4.60987e-12 5.81992e-12 0.0703762
15 1 23.1406 1.37639e-19 16.529 0 0 0 1.00016e-11 -9.54003e-12 0.0703762
35 1 23.1406 3.3058 16.529 0 0 0 1.13489e-12 -1.62377e-12 0.0703762
17 1 26.4464 0 16.529 0 0 0 1.02707e-11 1.09022e-11 0.0703762
37 1 26.4464 3.3058 16.529 0 0 0 8.0097e-13 1.9149e-12 0.0703762
19 1 29.7522 0 16.529 0 0 0 -3.26757e-12 -9.84313e-12 0.0703762
39 1 29.7522 3.3058 16.529 0 0 0 4.09032e-13 -2.78967e-13 0.0703762
41 1 0 6.6116 16.529 0 0 0 7.11279e-12 -6.94246e-12 0.0703762
43 1 3.3058 6.6116 16.529 0 0 0 1.09936e-11 1.5058e-11 0.0703762
45 1 6.6116 6.6116 16.529 0 0 0 -1.5494e-13 -1.1576e-11 0.0703762
47 1 9.9174 6.6116 16.529 0 0 0 -2.49897e-12 9.56922e-12 0.0703762
49 1 13.2232 6.6116 16.529 0 0 0 -1.25038e-12 1.1614e-12 0.0703762
51 1 16.529 6.6116 16.529 0 0 0 7.73729e-12 9.89272e-12 0.0703762
53 1 19.8348 6.6116 16.529 0 0 0 1.18854e-12 -1.24708e-11 0.0703762
55 1 23.1406 6.6116 16.529 0 0 0 -1.37482e-11 1.04547e-11 0.0703762
57 1 26.4464 6.6116 16.529 0 0 0 -1.1431e-11 -7.57892e-14 0.0703762
59 1 29.7522 6.6116 16.529 0 0 0 2.43594e-12 5.23941e-12 0.0703762
61 1 0 9.9174 16.529 0 0 0 -5.7967e-12 1.53354e-12 0.0703762
63 1 3.3058 9.9174 16.529 0 0 0 -2.49586e-12 -1.07661e-11 0.0703762
65 1 6.6116 9.9174 16.529 0 0 0 6.88503e-14 3.40375e-12 0.0703762
67 1 9.9174 9.9174 16.529 0 0 0 2.22586e-12 4.28638e-12 0.0703762
69 1 13.2232 9.9174 16.529 0 0 0 4.51399e-13 -5.87633e-12 0.0703762
71 1 16.529 9.9174 16.529 0 0 0 -5.68243e-12 8.14667e-12 0.0703762
73 1 19.8348 9.9174 16.529 0 0 0 -3.29278e-13 -3.15968e-12 0.0703762
75 1 23.1406 9.9174 16.529 0 0 0 9.77941e-12 4.0543e-12 0.0703762
77 1 26.4464 9.9174 16.529 0 0 0 9.50308e-12 -7.52595e-12 0.0703762
79 1 29.7522 9.9174 16.529 0 0 0 -5.53313e-12 -2.31265e-13 0.0703762
81 1 1.24319e-19 13.2232 16.529 0 0 0 9.07985e-13 9.2644e-12 0.0703762
83 1 3.3058 13.2232 16.529 0 0 0 -7.83278e-12 -1.42202e-11 0.0703762
85 1 6.6116 13.2232 16.529 0 0 0 -5.28328e-13 6.49013e-12 0.0703762
87 1 9.9174 13.2232 16.529 0 0 0 -4.54187e-12 -5.25642e-12 0.0703762
89 1 13.2232 13.2232 16.529 0 0 0 -5.16015e-14 -8.02284e-14 0.0703762
91 1 16.529 13.2232 16.529 0 0 0 2.71942e-12 -5.18241e-12 0.0703762
93 1 19.8348 13.2232 16.529 0 0 0 -7.09473e-13 6.666e-12 0.0703762
95 1 23.1406 13.2232 16.529 0 0 0 -1.2662e-12 -5.58846e-12 0.0703762
97 1 26.4464 13.2232 16.529 0 0 0 1.43457e-12 6.5447e-13 0.0703762
99 1 29.7522 13.2232 16.529 0 0 0 9.63045e-12 -9.15732e-12 0.0703762
101 1 0 16.529 16.529 0 0 0 3.66472e-13 1.24715e-12 0.0703762
103 1 3.3058 16.529 16.529 0 0 0 1.4039e-13 -9.88961e-12 0.0703762
121 1 1.77599e-20 19.8348 16.529 0 0 0 -1.82321e-12 3.45466e-13 0.0703762
123 1 3.3058 19.8348 16.529 0 0 0 4.22384e-12 2.77136e-13 0.0703762
105 1 6.6116 16.529 16.529 0 0 0 6.44612e-13 1.06164e-11 0.0703762
125 1 6.6116 19.8348 16.529 0 0 0 -1.26606e-12 -1.09027e-12 0.0703762
107 1 9.9174 16.529 16.529 0 0 0 4.66636e-12 -8.06781e-12 0.0703762
127 1 9.9174 19.8348 16.529 0 0 0 -8.71278e-12 5.33725e-13 0.0703762
109 1 13.2232 16.529 16.529 0 0 0 -1.75391e-13 -1.13028e-12 0.0703762
129 1 13.2232 19.8348 16.529 0 0 0 4.3646e-13 -6.02425e-13 0.0703762
111 1 16.529 16.529 16.529 0 0 0 3.75468e-12 -2.0978e-12 0.0703762
113 1 19.8348 16.529 16.529 0 0 0 1.65394e-13 3.47671e-12 0.0703762
131 1 16.529 19.8348 16.529 0 0 0 -2.74837e-14 1.72694e-13 0.0703762
133 1 19.8348 19.8348 16.529 0 0 0 3.81802e-13 2.62174e-13 0.0703762
115 1 23.1406 16.529 16.529 0 0 0 -5.28378e-12 -1.59794e-12 0.0703762
135 1 23.1406 19.8348 16.529 0 0 0 -8.36519e-14 1.44526e-13 0.0703762
117 1 26.4464 16.529 16.529 0 0 0 -2.48789e-13 -2.95716e-12 0.0703762
137 1 26.4464 19.8348 16.529 0 0 0 -6.65181e-13 -6.19874e-13 0.0703762
119 1 29.7522 16.529 16.529 0 0 0 -5.48908e-12 1.00408e-12 0.0703762
139 1 29.7522 19.8348 16.529 0 0 0 6.62016e-12 1.03302e-13 0.0703762
141 1 0 23.1406 16.529 0 0 0 7.393e-13 -4.55774e-12 0.0703762
143 1 3.3058 23.1406 16.529 0 0 0 -3.6737e-12 9.39165e-12 0.0703762
145 1 6.6116 23.1406 16.529 0 0 0 1.0617e-11 1.50286e-12 0.0703762
147 1 9.9174 23.1406 16.529 0 0 0 1.02882e-11 -1.11049e-13 0.0703762
149 1 13.2232 23.1406 16.529 0 0 0 4.66482e-12 1.00543e-11 0.0703762
151 1 16.529 23.1406 16.529 0 0 0 -3.37878e-12 -6.73223e-13 0.0703762
153 1 19.8348 23.1406 16.529 0 0 0 -5.57309e-12 1.13329e-12 0.0703762
155 1 23.1406 23.1406 16.529 0 0 0 -1.27639e-12 8.64388e-12 0.0703762
157 1 26.4464 23.1406 16.529 0 0 0 -2.99966e-14 -3.73992e-12 0.0703762
159 1 29.7522 23.1406 16.529 0 0 0 -1.02338e-11 6.83709e-12 0.0703762
161 1 0 26.4464 16.529 0 0 0 -2.84023e-13 -1.06237e-13 0.0703762
163 1 3.3058 26.4464 16.529 0 0 0 -4.3215e-13 2.9446e-13 0.0703762
165 1 6.6116 26.4464 16.529 0 0 0 -1.16448e-11 -6.22306e-13 0.0703762
167 1 9.9174 26.4464 16.529 0 0 0 -1.74124e-12 1.80493e-13 0.0703762
169 1 13.2232 26.4464 16.529 0 0 0 -4.56e-12 3.07836e-13 0.0703762
171 1 16.529 26.4464 16.529 0 0 0 6.23966e-12 -1.45158e-13 0.0703762
173 1 19.8348 26.4464 16.529 0 0 0 6.90149e-12 3.77794e-13 0.0703762
175 1 23.1406 26.4464 16.529 0 0 0 8.24051e-12 4.88835e-12 0.0703762
177 1 26.4464 26.4464 16.529 0 0 0 6.33448e-13 -6.48455e-12 0.0703762
179 1 29.7522 26.4464 16.529 0 0 0 -1.3335e-12 4.92973e-12 0.0703762
181 1 0 29.7522 16.529 0 0 0 1.05797e-11 1.19467e-11 0.0703762
183 1 3.3058 29.7522 16.529 0 0 0 4.12875e-12 -8.78428e-12 0.0703762
185 1 6.6116 29.7522 16.529 0 0 0 4.72804e-12 -6.74077e-12 0.0703762
187 1 9.9174 29.7522 16.529 0 0 0 -6.24771e-12 3.98552e-12 0.0703762
189 1 13.2232 29.7522 16.529 0 0 0 4.48032e-12 -2.72434e-12 0.0703762
191 1 16.529 29.7522 16.529 0 0 0 8.34391e-12 8.47217e-13 0.0703762
193 1 19.8348 29.7522 16.529 0 0 0 -2.37398e-13 -1.59638e-12 0.0703762
195 1 23.1406 29.7522 16.529 0 0 0 -1.42545e-11 -9.74392e-12 0.0703762
197 1 26.4464 29.7522 16.529 0 0 0 -9.42762e-12 7.39857e-12 0.0703762
199 1 29.7522 29.7522 16.529 0 0 0 1.49939e-12 -2.48337e-12 0.0703762
2 1 1.6529 1.6529 18.1819 0 0 0 1.60732e-10 2.0425e-10 -0.0599413
201 1 5.71645e-19 3.04137e-19 19.8348 0 0 0 8.67489e-11 2.12409e-11 -0.0291112
203 1 3.3058 3.26222e-19 19.8348 0 0 0 6.25189e-10 2.00748e-10 -0.0291111
221 1 0 3.3058 19.8348 0 0 0 5.17542e-10 9.92688e-10 -0.0291111
223 1 3.3058 3.3058 19.8348 0 0 0 -1.36773e-10 -1.41377e-11 -0.0291111
4 1 4.9587 1.6529 18.1819 0 0 0 -1.41155e-10 2.25274e-10 -0.0599413
205 1 6.6116 6.66364e-19 19.8348 0 0 0 1.56192e-10 -8.91805e-11 -0.0291112
225 1 6.6116 3.3058 19.8348 0 0 0 2.89895e-10 -6.45787e-10 -0.0291111
6 1 8.2645 1.6529 18.1819 0 0 0 1.48939e-10 1.78695e-10 -0.0599413
207 1 9.9174 9.42382e-19 19.8348 0 0 0 -8.296e-10 -6.07075e-11 -0.0291111
227 1 9.9174 3.3058 19.8348 0 0 0 3.15457e-10 6.13149e-10 -0.0291111
8 1 11.5703 1.6529 18.1819 0 0 0 -1.89266e-10 1.27563e-10 -0.0599413
10 1 14.8761 1.6529 18.1819 0 0 0 1.34137e-10 1.49961e-10 -0.0599413
209 1 13.2232 1.05264e-18 19.8348 0 0 0 -1.1341e-10 -6.37337e-11 -0.0291112
229 1 13.2232 3.3058 19.8348 0 0 0 1.75524e-10 9.00035e-11 -0.0291111
12 1 18.1819 1.6529 18.1819 0 0 0 -8.60645e-11 2.20392e-10 -0.0599413
211 1 16.529 8.96132e-19 19.8348 0 0 0 1.00325e-09 -3.55809e-10 -0.0291111
213 1 19.8348 8.37303e-19 19.8348 0 0 0 -5.83979e-11 -4.52895e-11 -0.0291112
231 1 16.529 3.3058 19.8348 0 0 0 -7.49803e-10 1.01546e-09 -0.0291111
233 1 19.8348 3.3058 19.8348 0 0 0 -5.38304e-11 -7.75119e-10 -0.0291111
14 1 21.4877 1.6529 18.1819 0 0 0 1.4323e-10 1.33309e-10 -0.0599413
215 1 23.1406 4.11067e-19 19.8348 0 0 0 -8.68307e-10 -2.49164e-10 -0.0291111
235 1 23.1406 3.3058 19.8348 0 0 0 1.18699e-09 5.91684e-10 -0.0291111
16 1 24.7935 1.6529 18.1819 0 0 0 -1.89602e-10 1.96985e-10 -0.0599413
217 1 26.4464 1.06004e-18 19.8348 0 0 0 -6.33846e-11 -8.87216e-11 -0.0291112
237 1 26.4464 3.3058 19.8348 0 0 0 6.16562e-11 7.24567e-11 -0.0291111
18 1 28.0993 1.6529 18.1819 0 0 0 1.42742e-10 2.39278e-10 -0.0599413
20 1 31.4051 1.6529 18.1819 0 0 0 -1.20863e-10 1.41507e-10 -0.0599413
219 1 29.7522 6.19097e-19 19.8348 0 0 0 3.03817e-11 -3.39885e-10 -0.0291111
239 1 29.7522 3.3058 19.8348 0 0 0 -1.64516e-09 -6.40849e-10 -0.0291111
22 1 1.6529 4.9587 18.1819 0 0 0 1.54363e-10 -2.89107e-10 -0.0599413
241 1 7.59234e-19 6.6116 19.8348 0 0 0 2.60549e-10 -4.79104e-11 -0.0291112
243 1 3.3058 6.6116 19.8348 0 0 0 -1.16882e-09 3.11309e-10 -0.0291111
24 1 4.9587 4.9587 18.1819 0 0 0 -2.02807e-10 -8.76626e-11 -0.0599413
245 1 6.6116 6.6116 19.8348 0 0 0 -5.94567e-11 -7.8364e-11 -0.0291112
26 1 8.2645 4.9587 18.1819 0 0 0 1.96156e-10 -1.66787e-10 -0.0599413
28 1 11.5703 4.9587 18.1819 0 0 0 -1.33943e-10 -2.2705e-10 -0.0599413
247 1 9.9174 6.6116 19.8348 0 0 0 -2.28167e-11 8.78026e-11 -0.0291111
30 1 14.8761 4.9587 18.1819 0 0 0 1.36064e-10 -1.17045e-10 -0.0599413
249 1 13.2232 6.6116 19.8348 0 0 0 2.48457e-11 3.23071e-11 -0.0291112
32 1 18.1819 4.9587 18.1819 0 0 0 -2.02324e-10 -1.82123e-10 -0.0599413
251 1 16.529 6.6116 19.8348 0 0 0 1.04538e-10 3.78742e-11 -0.0291111
253 1 19.8348 6.6116 19.8348 0 0 0 -2.65843e-10 3.92861e-11 -0.0291112
34 1 21.4877 4.9587 18.1819 0 0 0 1.44665e-10 -1.45895e-10 -0.0599413
255 1 23.1406 6.6116 19.8348 0 0 0 -1.43673e-10 5.26056e-11 -0.0291111
36 1 24.7935 4.9587 18.1819 0 0 0 -1.40059e-10 -2.4303e-10 -0.0599413
38 1 28.0993 4.9587 18.1819 0 0 0 2.27524e-10 -2.02157e-10 -0.0599413
257 1 26.4464 6.6116 19.8348 0 0 0 1.49282e-10 2.24639e-10 -0.0291112
40 1 31.4051 4.9587 18.1819 0 0 0 -1.54609e-10 -1.57787e-10 -0.0599413
259 1 29.7522 6.6116 19.8348 0 0 0 1.11321e-09 -1.0429e-10 -0.0291111
42 1 1.6529 8.2645 18.1819 0 0 0 2.93885e-10 1.45395e-10 -0.0599413
261 1 2.03128e-19 9.9174 19.8348 0 0 0 -6.06805e-11 -9.83223e-10 -0.0291111
263 1 3.3058 9.9174 19.8348 0 0 0 5.61965e-10 -1.23432e-10 -0.0291111
62 1 1.6529 11.5703 18.1819 0 0 0 9.13802e-11 -1.42248e-10 -0.0599413
44 1 4.9587 8.2645 18.1819 0 0 0 -2.22047e-10 1.77388e-10 -0.0599413
265 1 6.6116 9.9174 19.8348 0 0 0 1.89567e-10 4.46189e-10 -0.0291111
64 1 4.9587 11.5703 18.1819 0 0 0 -1.89658e-10 -2.00143e-10 -0.0599413
46 1 8.2645 8.2645 18.1819 0 0 0 4.90252e-11 1.52376e-10 -0.0599413
267 1 9.9174 9.9174 19.8348 0 0 0 1.24606e-10 -5.68848e-10 -0.0291111
48 1 11.5703 8.2645 18.1819 0 0 0 -2.06206e-10 1.79484e-10 -0.0599413
66 1 8.2645 11.5703 18.1819 0 0 0 2.70021e-10 -1.81054e-10 -0.0599413
68 1 11.5703 11.5703 18.1819 0 0 0 -1.18166e-10 -7.60527e-11 -0.0599413
50 1 14.8761 8.2645 18.1819 0 0 0 3.08913e-10 1.94042e-10 -0.0599413
269 1 13.2232 9.9174 19.8348 0 0 0 2.85976e-10 6.45841e-11 -0.0291111
70 1 14.8761 11.5703 18.1819 0 0 0 7.68029e-11 -1.89361e-10 -0.0599413
52 1 18.1819 8.2645 18.1819 0 0 0 -1.17882e-10 5.1171e-11 -0.0599413
271 1 16.529 9.9174 19.8348 0 0 0 -7.95536e-10 -8.95044e-10 -0.0291111
273 1 19.8348 9.9174 19.8348 0 0 0 2.07593e-11 3.5109e-10 -0.0291111
72 1 18.1819 11.5703 18.1819 0 0 0 -1.87638e-10 -1.77296e-10 -0.0599413
54 1 21.4877 8.2645 18.1819 0 0 0 1.23696e-10 2.1403e-10 -0.0599413
275 1 23.1406 9.9174 19.8348 0 0 0 7.35831e-10 -7.59119e-10 -0.0291111
74 1 21.4877 11.5703 18.1819 0 0 0 2.39661e-10 -8.0159e-11 -0.0599413
56 1 24.7935 8.2645 18.1819 0 0 0 -2.12426e-10 1.7356e-10 -0.0599413
277 1 26.4464 9.9174 19.8348 0 0 0 9.0444e-11 -2.95711e-11 -0.0291111
58 1 28.0993 8.2645 18.1819 0 0 0 1.64633e-10 1.23667e-10 -0.0599413
76 1 24.7935 11.5703 18.1819 0 0 0 -1.35677e-10 -1.50884e-10 -0.0599413
78 1 28.0993 11.5703 18.1819 0 0 0 1.79335e-10 -2.80446e-10 -0.0599413
60 1 31.4051 8.2645 18.1819 0 0 0 -1.69201e-10 2.39399e-10 -0.0599413
279 1 29.7522 9.9174 19.8348 0 0 0 -1.1151e-09 6.04601e-10 -0.0291111
80 1 31.4051 11.5703 18.1819 0 0 0 -2.14747e-10 -7.82945e-11 -0.0599413
82 1 1.6529 14.8761 18.1819 0 0 0 2.01078e-10 1.97582e-10 -0.0599413
281 1 1.36899e-20 13.2232 19.8348 0 0 0 1.829e-10 2.03448e-10 -0.0291112
283 1 3.3058 13.2232 19.8348 0 0 0 3.64586e-10 1.84031e-10 -0.0291111
84 1 4.9587 14.8761 18.1819 0 0 0 -2.00137e-10 6.67169e-11 -0.0599413
285 1 6.6116 13.2232 19.8348 0 0 0 -4.921e-11 3.62356e-10 -0.0291112
86 1 8.2645 14.8761 18.1819 0 0 0 1.25421e-10 1.53597e-10 -0.0599413
287 1 9.9174 13.2232 19.8348 0 0 0 -4.59181e-10 1.38807e-10 -0.0291111
88 1 11.5703 14.8761 18.1819 0 0 0 -1.99353e-10 1.67985e-10 -0.0599413
90 1 14.8761 14.8761 18.1819 0 0 0 2.17012e-10 7.68963e-11 -0.0599413
289 1 13.2232 13.2232 19.8348 0 0 0 -4.73644e-11 2.73943e-11 -0.0291112
92 1 18.1819 14.8761 18.1819 0 0 0 -1.82173e-10 2.26029e-10 -0.0599413
291 1 16.529 13.2232 19.8348 0 0 0 4.00391e-10 2.13982e-10 -0.0291111
293 1 19.8348 13.2232 19.8348 0 0 0 2.8406e-10 1.5066e-10 -0.0291112
94 1 21.4877 14.8761 18.1819 0 0 0 1.6331e-10 1.66805e-10 -0.0599413
295 1 23.1406 13.2232 19.8348 0 0 0 -4.77828e-10 2.84089e-10 -0.0291111
96 1 24.7935 14.8761 18.1819 0 0 0 -2.31856e-10 9.58479e-11 -0.0599413
297 1 26.4464 13.2232 19.8348 0 0 0 -1.36261e-10 -4.08499e-11 -0.0291112
98 1 28.0993 14.8761 18.1819 0 0 0 1.98993e-10 2.05362e-10 -0.0599413
100 1 31.4051 14.8761 18.1819 0 0 0 -7.65394e-11 6.38768e-11 -0.0599413
299 1 29.7522 13.2232 19.8348 0 0 0 -1.41231e-10 3.93956e-11 -0.0291111
102 1 1.6529 18.1819 18.1819 0 0 0 1.09828e-10 -1.20938e-10 -0.0599413
301 1 4.82476e-19 16.529 19.8348 0 0 0 1.21741e-10 -6.68642e-11 -0.0291111
303 1 3.3058 16.529 19.8348 0 0 0 -7.69935e-10 -1.96997e-10 -0.0291111
321 1 0 19.8348 19.8348 0 0 0 1.40771e-10 6.37877e-11 -0.0291112
323 1 3.3058 19.8348 19.8348 0 0 0 1.16698e-11 2.49995e-10 -0.0291111
104 1 4.9587 18.1819 18.1819 0 0 0 -1.28498e-10 -1.46526e-10 -0.0599413
305 1 6.6116 16.529 19.8348 0 0 0 2.74831e-10 -4.87316e-10 -0.0291111
325 1 6.6116 19.8348 19.8348 0 0 0 2.04513e-11 -1.44165e-10 -0.0291112
106 1 8.2645 18.1819 18.1819 0 0 0 1.63555e-10 -1.55532e-10 -0.0599413
307 1 9.9174 16.529 19.8348 0 0 0 3.1016e-10 -6.42201e-11 -0.0291111
327 1 9.9174 19.8348 19.8348 0 0 0 -1.63624e-10 5.32295e-10 -0.0291111
108 1 11.5703 18.1819 18.1819 0 0 0 -1.71379e-10 -1.79397e-10 -0.0599413
110 1 14.8761 18.1819 18.1819 0 0 0 1.7238e-10 -1.78494e-10 -0.0599413
309 1 13.2232 16.529 19.8348 0 0 0 1.17292e-10 -5.11023e-12 -0.0291111
329 1 13.2232 19.8348 19.8348 0 0 0 -2.17684e-10 3.98941e-11 -0.0291112
112 1 18.1819 18.1819 18.1819 0 0 0 -1.29669e-10 -1.32434e-10 -0.0599413
311 1 16.529 16.529 19.8348 0 0 0 -3.97494e-10 2.52279e-10 -0.0291111
313 1 19.8348 16.529 19.8348 0 0 0 1.4021e-11 -5.87405e-10 -0.0291111
331 1 16.529 19.8348 19.8348 0 0 0 -8.43154e-12 3.02264e-10 -0.0291111
333 1 19.8348 19.8348 19.8348 0 0 0 -1.19506e-11 -1.05037e-11 -0.0291112
114 1 21.4877 18.1819 18.1819 0 0 0 1.40396e-10 -2.49428e-10 -0.0599413
315 1 23.1406 16.529 19.8348 0 0 0 1.3474e-10 2.73056e-10 -0.0291111
335 1 23.1406 19.8348 19.8348 0 0 0 1.28491e-10 1.27257e-10 -0.0291111
116 1 24.7935 18.1819 18.1819 0 0 0 -1.45384e-10 -1.81764e-10 -0.0599413
317 1 26.4464 16.529 19.8348 0 0 0 1.53244e-10 1.94771e-10 -0.0291111
337 1 26.4464 19.8348 19.8348 0 0 0 -1.09658e-11 2.88344e-11 -0.0291112
118 1 28.0993 18.1819 18.1819 0 0 0 1.82768e-10 -8.09065e-11 -0.0599413
120 1 31.4051 18.1819 18.1819 0 0 0 -1.93764e-10 -2.47479e-10 -0.0599413
319 1 29.7522 16.529 19.8348 0 0 0 1.15703e-11 -1.1911e-10 -0.0291111
339 1 29.7522 19.8348 19.8348 0 0 0 6.50541e-11 7.2741e-11 -0.0291111
122 1 1.6529 21.4877 18.1819 0 0 0 2.00697e-10 1.26799e-10 -0.0599413
341 1 4.04037e-19 23.1406 19.8348 0 0 0 2.89436e-10 -2.02695e-10 -0.0291111
343 1 3.3058 23.1406 19.8348 0 0 0 -6.05171e-10 -1.77986e-10 -0.0291111
124 1 4.9587 21.4877 18.1819 0 0 0 -1.57038e-10 1.53861e-10 -0.0599413
345 1 6.6116 23.1406 19.8348 0 0 0 4.31574e-10 5.29354e-11 -0.0291111
126 1 8.2645 21.4877 18.1819 0 0 0 1.57659e-10 2.3584e-10 -0.0599413
128 1 11.5703 21.4877 18.1819 0 0 0 -1.23244e-10 1.07202e-10 -0.0599413
347 1 9.9174 23.1406 19.8348 0 0 0 -1.03855e-09 -1.28912e-09 -0.0291111
130 1 14.8761 21.4877 18.1819 0 0 0 1.96261e-10 3.17247e-10 -0.0599413
349 1 13.2232 23.1406 19.8348 0 0 0 4.77083e-10 9.66941e-10 -0.0291111
132 1 18.1819 21.4877 18.1819 0 0 0 -2.32269e-10 1.40946e-10 -0.0599413
351 1 16.529 23.1406 19.8348 0 0 0 -1.96646e-10 -1.65236e-09 -0.0291111
353 1 19.8348 23.1406 19.8348 0 0 0 1.13571e-10 4.97368e-10 -0.0291111
134 1 21.4877 21.4877 18.1819 0 0 0 1.66285e-10 1.91401e-10 -0.0599413
355 1 23.1406 23.1406 19.8348 0 0 0 7.34179e-11 -1.12337e-09 -0.0291111
136 1 24.7935 21.4877 18.1819 0 0 0 -1.41944e-10 2.38418e-10 -0.0599413
138 1 28.0993 21.4877 18.1819 0 0 0 1.23203e-10 1.20076e-10 -0.0599413
357 1 26.4464 23.1406 19.8348 0 0 0 3.42381e-10 4.73689e-10 -0.0291111
140 1 31.4051 21.4877 18.1819 0 0 0 -1.82049e-10 1.91044e-10 -0.0599413
359 1 29.7522 23.1406 19.8348 0 0 0 8.08506e-11 -5.48457e-10 -0.0291111
142 1 1.6529 24.7935 18.1819 0 0 0 9.40633e-11 -2.00592e-10 -0.0599413
361 1 2.50118e-19 26.4464 19.8348 0 0 0 -2.07033e-12 -5.85149e-11 -0.0291112
363 1 3.3058 26.4464 19.8348 0 0 0 -2.23729e-11 3.29287e-10 -0.0291111
162 1 1.6529 28.0993 18.1819 0 0 0 2.43131e-10 2.40384e-10 -0.0599413
144 1 4.9587 24.7935 18.1819 0 0 0 -1.1069e-10 -1.3676e-10 -0.0599413
365 1 6.6116 26.4464 19.8348 0 0 0 1.78092e-10 4.10185e-11 -0.0291112
164 1 4.9587 28.0993 18.1819 0 0 0 -1.47576e-10 1.52988e-10 -0.0599413
146 1 8.2645 24.7935 18.1819 0 0 0 1.65118e-10 -1.4561e-10 -0.0599413
367 1 9.9174 26.4464 19.8348 0 0 0 7.58269e-10 2.67462e-10 -0.0291111
148 1 11.5703 24.7935 18.1819 0 0 0 -1.1939e-10 -2.22943e-10 -0.0599413
166 1 8.2645 28.0993 18.1819 0 0 0 7.14012e-11 1.9309e-10 -0.0599413
168 1 11.5703 28.0993 18.1819 0 0 0 -1.57819e-10 2.20648e-10 -0.0599413
150 1 14.8761 24.7935 18.1819 0 0 0 1.52349e-10 -1.5683e-10 -0.0599413
369 1 13.2232 26.4464 19.8348 0 0 0 1.27302e-10 -1.37512e-10 -0.0291112
170 1 14.8761 28.0993 18.1819 0 0 0 1.66631e-10 1.87541e-10 -0.0599413
152 1 18.1819 24.7935 18.1819 0 0 0 -1.45389e-10 -2.32242e-10 -0.0599413
371 1 16.529 26.4464 19.8348 0 0 0 -1.90464e-10 1.16091e-10 -0.0291111
373 1 19.8348 26.4464 19.8348 0 0 0 1.47027e-10 1.42069e-11 -0.0291112
172 1 18.1819 28.0993 18.1819 0 0 0 -1.34917e-10 2.28611e-10 -0.0599413
154 1 21.4877 24.7935 18.1819 0 0 0 1.92242e-10 -1.27238e-10 -0.0599413
375 1 23.1406 26.4464 19.8348 0 0 0 -5.00729e-11 6.93254e-11 -0.0291111
174 1 21.4877 28.0993 18.1819 0 0 0 1.45678e-10 1.65766e-10 -0.0599413
156 1 24.7935 24.7935 18.1819 0 0 0 -1.96878e-10 -1.45906e-10 -0.0599413
377 1 26.4464 26.4464 19.8348 0 0 0 -2.47708e-10 -3.22696e-10 -0.0291112
158 1 28.0993 24.7935 18.1819 0 0 0 2.13775e-10 -2.45168e-10 -0.0599413
176 1 24.7935 28.0993 18.1819 0 0 0 -2.65496e-10 1.94101e-10 -0.0599413
178 1 28.0993 28.0993 18.1819 0 0 0 2.07577e-10 1.78146e-10 -0.0599413
160 1 31.4051 24.7935 18.1819 0 0 0 -2.183e-10 -6.95616e-11 -0.0599413
379 1 29.7522 26.4464 19.8348 0 0 0 -7.05682e-10 -1.45734e-11 -0.0291111
180 1 31.4051 28.0993 18.1819 0 0 0 -1.02537e-10 1.06977e-10 -0.0599413
182 1 1.6529 31.4051 18.1819 0 0 0 8.27104e-11 -1.52969e-10 -0.0599413
381 1 0 29.7522 19.8348 0 0 0 3.49681e-10 1.89481e-11 -0.0291111
383 1 3.3058 29.7522 19.8348 0 0 0 -1.11921e-09 -8.39307e-10 -0.0291111
184 1 4.9587 31.4051 18.1819 0 0 0 -1.56061e-10 -1.78118e-10 -0.0599413
385 1 6.6116 29.7522 19.8348 0 0 0 5.54889e-10 5.45721e-10 -0.0291111
186 1 8.2645 31.4051 18.1819 0 0 0 2.16009e-10 -2.45374e-10 -0.0599413
387 1 9.9174 29.7522 19.8348 0 0 0 -5.76131e-10 2.36749e-10 -0.0291111
188 1 11.5703 31.4051 18.1819 0 0 0 -1.1391e-10 -8.70846e-11 -0.0599413
190 1 14.8761 31.4051 18.1819 0 0 0 2.03073e-10 -2.92889e-10 -0.0599413
389 1 13.2232 29.7522 19.8348 0 0 0 5.25691e-10 -1.0565e-09 -0.0291111
192 1 18.1819 31.4051 18.1819 0 0 0 -1.77649e-10 -1.43144e-10 -0.0599413
391 1 16.529 29.7522 19.8348 0 0 0 -9.86156e-10 9.20974e-10 -0.0291111
393 1 19.8348 29.7522 19.8348 0 0 0 1.24037e-11 3.45733e-10 -0.0291111
194 1 21.4877 31.4051 18.1819 0 0 0 1.93083e-10 -2.67664e-10 -0.0599413
395 1 23.1406 29.7522 19.8348 0 0 0 8.72635e-10 6.92507e-10 -0.0291111
196 1 24.7935 31.4051 18.1819 0 0 0 -1.69984e-10 -2.01438e-10 -0.0599413
397 1 26.4464 29.7522 19.8348 0 0 0 -3.89095e-11 -5.30658e-10 -0.0291111
198 1 28.0993 31.4051 18.1819 0 0 0 1.73409e-10 -7.89245e-11 -0.0599413
200 1 31.4051 31.4051 18.1819 0 0 0 -2.42439e-10 -2.11256e-10 -0.0599413
399 1 29.7522 29.7522 19.8348 0 0 0 4.05117e-10 9.32973e-10 -0.0291111
202 1 1.6529 1.6529 21.4877 0 0 0 6.26282e-09 7.33866e-09 0.00503415
401 1 0 0 23.1406 0 0 0 6.5148e-06 1.34345e-05 0.00246423
402 1 1.6529 1.6529 24.7935 0 0 0 -0.000183083 -8.57127e-05 0.00161522
403 1 3.3058 0 23.1406 0 0 0 4.03501e-05 -9.49677e-06 0.00258689
421 1 2.73798e-19 3.3058 23.1406 0 0 0 -8.55448e-07 4.05268e-05 0.00259151
423 1 3.3058 3.3058 23.1406 0 0 0 -9.25601e-06 9.86707e-06 0.00223496
204 1 4.9587 1.6529 21.4877 0 0 0 3.80079e-08 -3.61938e-08 0.00503469
404 1 4.9587 1.6529 24.7935 0 0 0 5.96337e-06 -1.0149e-05 0.00161782
405 1 6.6116 1.31719e-19 23.1406 0 0 0 -2.22809e-05 1.31698e-05 0.0026657
425 1 6.6116 3.3058 23.1406 0 0 0 1.11276e-05 -3.3751e-05 0.00258587
206 1 8.2645 1.6529 21.4877 0 0 0 -2.44569e-08 -1.94459e-08 0.00503458
208 1 11.5703 1.6529 21.4877 0 0 0 -2.92666e-08 2.73709e-08 0.00503402
406 1 8.2645 1.6529 24.7935 0 0 0 3.12835e-05 6.65412e-06 0.00142587
407 1 9.9174 0 23.1406 0 0 0 -3.88585e-05 -4.01978e-06 0.00250507
427 1 9.9174 3.3058 23.1406 0 0 0 2.32612e-05 1.25512e-05 0.00246716
408 1 11.5703 1.6529 24.7935 0 0 0 7.46068e-05 -6.51403e-05 0.00165629
210 1 14.8761 1.6529 21.4877 0 0 0 4.1382e-08 4.14469e-08 0.00503403
409 1 13.2232 7.13354e-19 23.1406 0 0 0 -7.96445e-06 -4.79462e-06 0.00238277
410 1 14.8761 1.6529 24.7935 0 0 0 -4.57164e-05 1.33441e-05 0.00155154
429 1 13.2232 3.3058 23.1406 0 0 0 5.88735e-06 1.84438e-05 0.00242943
212 1 18.1819 1.6529 21.4877 0 0 0 -1.33762e-08 -1.68826e-09 0.00503431
411 1 16.529 2.24958e-19 23.1406 0 0 0 2.76689e-05 -3.71421e-06 0.0024477
412 1 18.1819 1.6529 24.7935 0 0 0 -3.01139e-05 4.00923e-06 0.00146528
413 1 19.8348 1.86478e-19 23.1406 0 0 0 1.26664e-05 1.49765e-05 0.00255165
431 1 16.529 3.3058 23.1406 0 0 0 -2.64847e-05 5.73879e-06 0.00256295
433 1 19.8348 3.3058 23.1406 0 0 0 -8.12092e-06 -1.59614e-05 0.00253404
214 1 21.4877 1.6529 21.4877 0 0 0 1.92821e-09 7.21019e-09 0.00503439
414 1 21.4877 1.6529 24.7935 0 0 0 4.89669e-05 -1.95197e-05 0.00158539
415 1 23.1406 1.87958e-19 23.1406 0 0 0 -3.34554e-05 -3.41378e-06 0.00248222
435 1 23.1406 3.3058 23.1406 0 0 0 4.11536e-05 3.67585e-06 0.00250561
216 1 24.7935 1.6529 21.4877 0 0 0 -3.13896e-08 2.54349e-08 0.00503402
218 1 28.0993 1.6529 21.4877 0 0 0 3.73551e-08 2.76435e-08 0.00503408
416 1 24.7935 1.6529 24.7935 0 0 0 1.17416e-05 2.72301e-05 0.00155628
417 1 26.4464 9.6199e-21 23.1406 0 0 0 1.08713e-05 -7.14383e-06 0.00240606
437 1 26.4464 3.3058 23.1406 0 0 0 4.03868e-06 4.56998e-06 0.0024123
418 1 28.0993 1.6529 24.7935 0 0 0 4.12483e-05 0.000105641 0.00155776
220 1 31.4051 1.6529 21.4877 0 0 0 -2.11799e-08 2.57061e-08 0.00503418
419 1 29.7522 1.55861e-19 23.1406 0 0 0 3.78249e-06 -1.84087e-06 0.00244705
420 1 31.4051 1.6529 24.7935 0 0 0 8.95036e-05 -7.42749e-05 0.00149394
439 1 29.7522 3.3058 23.1406 0 0 0 -6.33544e-05 -2.75895e-05 0.00247039
222 1 1.6529 4.9587 21.4877 0 0 0 -3.9935e-08 6.18351e-08 0.00503491
422 1 1.6529 4.9587 24.7935 0 0 0 -7.51233e-06 3.87634e-06 0.00157266
441 1 4.43996e-21 6.6116 23.1406 0 0 0 -2.21568e-06 1.74177e-05 0.00275434
443 1 3.3058 6.6116 23.1406 0 0 0 -4.85231e-05 -3.95424e-06 0.00259635
224 1 4.9587 4.9587 21.4877 0 0 0 -1.69485e-08 -2.22637e-08 0.00503419
424 1 4.9587 4.9587 24.7935 0 0 0 7.62725e-05 0.000178628 0.00160099
445 1 6.6116 6.6116 23.1406 0 0 0 -5.77012e-06 -1.62949e-05 0.00246173
226 1 8.2645 4.9587 21.4877 0 0 0 9.96202e-09 -2.08481e-08 0.00503413
228 1 11.5703 4.9587 21.4877 0 0 0 -1.95047e-08 -4.44921e-09 0.00503422
426 1 8.2645 4.9587 24.7935 0 0 0 -1.91176e-05 2.40897e-05 0.00140629
428 1 11.5703 4.9587 24.7935 0 0 0 -1.81493e-05 -3.80722e-05 0.00158771
447 1 9.9174 6.6116 23.1406 0 0 0 1.66619e-05 -1.87682e-06 0.00249751
230 1 14.8761 4.9587 21.4877 0 0 0 2.39569e-08 -3.2537e-08 0.00503421
430 1 14.8761 4.9587 24.7935 0 0 0 3.04531e-05 -3.48396e-05 0.00150205
449 1 13.2232 6.6116 23.1406 0 0 0 -1.358e-05 1.97037e-05 0.00251954
232 1 18.1819 4.9587 21.4877 0 0 0 -9.64793e-09 -9.13529e-09 0.00503414
432 1 18.1819 4.9587 24.7935 0 0 0 -2.00915e-05 5.47844e-05 0.00141965
451 1 16.529 6.6116 23.1406 0 0 0 -6.43973e-06 -4.49059e-06 0.00246827
453 1 19.8348 6.6116 23.1406 0 0 0 1.30096e-05 -5.35499e-06 0.00247908
234 1 21.4877 4.9587 21.4877 0 0 0 1.38711e-08 -1.84996e-08 0.00503421
434 1 21.4877 4.9587 24.7935 0 0 0 2.12348e-06 9.00823e-06 0.00143673
455 1 23.1406 6.6116 23.1406 0 0 0 -3.09101e-06 -4.1546e-07 0.00250493
236 1 24.7935 4.9587 21.4877 0 0 0 -2.79611e-08 -2.04155e-08 0.00503414
238 1 28.0993 4.9587 21.4877 0 0 0 2.36149e-08 -2.58659e-08 0.00503402
436 1 24.7935 4.9587 24.7935 0 0 0 -4.15003e-05 -0.000123092 0.00154196
438 1 28.0993 4.9587 24.7935 0 0 0 -3.83553e-05 4.54631e-05 0.00147952
457 1 26.4464 6.6116 23.1406 0 0 0 -2.54959e-05 7.22266e-06 0.00243657
240 1 31.4051 4.9587 21.4877 0 0 0 4.73185e-08 5.06098e-08 0.00503495
440 1 31.4051 4.9587 24.7935 0 0 0 5.47555e-06 7.83837e-05 0.00148599
459 1 29.7522 6.6116 23.1406 0 0 0 6.53408e-05 -1.03601e-05 0.00255685
242 1 1.6529 8.2645 21.4877 0 0 0 -9.25047e-08 -6.74381e-08 0.00503496
262 1 1.6529 11.5703 21.4877 0 0 0 2.67835e-08 -1.03887e-08 0.00503426
442 1 1.6529 8.2645 24.7935 0 0 0 3.84563e-05 -2.62857e-05 0.00161062
461 1 1.78339e-19 9.9174 23.1406 0 0 0 -3.8376e-06 -4.9688e-05 0.002633
463 1 3.3058 9.9174 23.1406 0 0 0 1.94302e-05 -1.40614e-05 0.00219544
462 1 1.6529 11.5703 24.7935 0 0 0 -0.000197103 0.000152691 0.00159533
244 1 4.9587 8.2645 21.4877 0 0 0 -1.39253e-08 1.33789e-08 0.00503412
264 1 4.9587 11.5703 21.4877 0 0 0 3.55377e-08 4.41599e-08 0.00503473
444 1 4.9587 8.2645 24.7935 0 0 0 0.000117544 -0.00015516 0.00155725
465 1 6.6116 9.9174 23.1406 0 0 0 5.75269e-06 5.27728e-05 0.00257394
464 1 4.9587 11.5703 24.7935 0 0 0 2.85108e-05 -3.33026e-05 0.00169032
246 1 8.2645 8.2645 21.4877 0 0 0 4.22793e-08 2.29463e-08 0.00503412
248 1 11.5703 8.2645 21.4877 0 0 0 -1.23964e-08 9.61018e-09 0.00503431
266 1 8.2645 11.5703 21.4877 0 0 0 -5.49763e-08 3.97781e-08 0.00503465
268 1 11.5703 11.5703 21.4877 0 0 0 -2.2933e-08 -3.04487e-08 0.00503414
446 1 8.2645 8.2645 24.7935 0 0 0 -5.24377e-05 -4.01436e-05 0.00143371
467 1 9.9174 9.9174 23.1406 0 0 0 7.96402e-06 -3.18092e-05 0.00239174
448 1 11.5703 8.2645 24.7935 0 0 0 -8.25637e-05 3.04616e-05 0.00164404
466 1 8.2645 11.5703 24.7935 0 0 0 -4.32677e-06 -4.37326e-05 0.00157235
468 1 11.5703 11.5703 24.7935 0 0 0 9.24879e-05 0.000109273 0.00157398
250 1 14.8761 8.2645 21.4877 0 0 0 -2.04323e-09 5.12351e-09 0.00503423
270 1 14.8761 11.5703 21.4877 0 0 0 4.08083e-08 -2.14762e-08 0.00503408
450 1 14.8761 8.2645 24.7935 0 0 0 8.60901e-05 6.93255e-05 0.0016061
469 1 13.2232 9.9174 23.1406 0 0 0 7.75858e-06 -2.25667e-05 0.00249664
470 1 14.8761 11.5703 24.7935 0 0 0 -0.000119238 5.71324e-05 0.00146253
252 1 18.1819 8.2645 21.4877 0 0 0 -2.09549e-08 3.03871e-08 0.00503415
272 1 18.1819 11.5703 21.4877 0 0 0 6.90284e-08 6.1902e-08 0.00503491
452 1 18.1819 8.2645 24.7935 0 0 0 7.5302e-05 -0.000162406 0.00151877
471 1 16.529 9.9174 23.1406 0 0 0 -5.54881e-05 -4.48112e-05 0.00237279
473 1 19.8348 9.9174 23.1406 0 0 0 7.88469e-08 5.474e-05 0.00261494
472 1 18.1819 11.5703 24.7935 0 0 0 1.5083e-05 2.67781e-05 0.00160972
254 1 21.4877 8.2645 21.4877 0 0 0 2.18511e-08 8.67024e-09 0.00503418
274 1 21.4877 11.5703 21.4877 0 0 0 -7.35491e-08 6.00171e-08 0.00503486
454 1 21.4877 8.2645 24.7935 0 0 0 -5.23149e-05 -3.62053e-05 0.00142676
475 1 23.1406 9.9174 23.1406 0 0 0 5.09394e-05 -4.11042e-05 0.00238319
474 1 21.4877 11.5703 24.7935 0 0 0 -7.87239e-06 4.39327e-05 0.00160694
256 1 24.7935 8.2645 21.4877 0 0 0 -1.44951e-08 2.27897e-08 0.00503411
258 1 28.0993 8.2645 21.4877 0 0 0 2.79735e-08 3.03584e-08 0.00503409
276 1 24.7935 11.5703 21.4877 0 0 0 -3.06584e-08 -3.16006e-08 0.00503408
278 1 28.0993 11.5703 21.4877 0 0 0 2.53697e-08 -1.94785e-08 0.00503407
456 1 24.7935 8.2645 24.7935 0 0 0 -7.76522e-05 0.000116057 0.00159215
477 1 26.4464 9.9174 23.1406 0 0 0 5.74161e-06 -4.15917e-06 0.00244292
458 1 28.0993 8.2645 24.7935 0 0 0 -0.000106128 -5.40614e-05 0.00152817
476 1 24.7935 11.5703 24.7935 0 0 0 8.52846e-05 8.43278e-05 0.00161743
478 1 28.0993 11.5703 24.7935 0 0 0 9.28846e-05 -9.24476e-05 0.00156462
260 1 31.4051 8.2645 21.4877 0 0 0 7.50966e-08 -7.51516e-08 0.00503497
280 1 31.4051 11.5703 21.4877 0 0 0 -9.49202e-09 -2.59977e-08 0.00503419
460 1 31.4051 8.2645 24.7935 0 0 0 3.61894e-05 -6.90627e-05 0.00157316
479 1 29.7522 9.9174 23.1406 0 0 0 -6.91403e-05 5.43853e-05 0.00241028
480 1 31.4051 11.5703 24.7935 0 0 0 5.04707e-05 0.000110551 0.00145125
282 1 1.6529 14.8761 21.4877 0 0 0 -7.72647e-10 -3.22802e-10 0.00503415
481 1 5.95695e-19 13.2232 23.1406 0 0 0 1.64687e-05 -6.61219e-06 0.00249171
482 1 1.6529 14.8761 24.7935 0 0 0 -4.87439e-05 3.45333e-05 0.00153241