ITEM: TIMESTEP
11
ITEM: NUMBER OF ATOMS
682
ITEM: BOX BOUNDS pp pp ff
0.0000000000000000e+00 2.3140599999999999e+01
0.0000000000000000e+00 2.3140599999999999e+01
0.0000000000000000e+00 5.0000000000000000e+01
ITEM: ATOMS id type xs ys zs
1 1 6.45319e-19 5.6491e-19 1.97204e-05
2 1 0.0714286 0.0714286 0.0330412
3 1 0.142857 4.32119e-19 1.97204e-05
15 1 2.45209e-19 0.142857 1.97204e-05
17 1 0.142857 0.142857 1.97204e-05
99 1 1.98047e-18 4.19709e-19 0.0661078
101 1 0.142857 2.41198e-19 0.0661078
113 1 3.44182e-17 0.142857 0.0661078
115 1 0.142857 0.142857 0.0661078
4 1 0.214286 0.0714286 0.0330412
5 1 0.285714 3.52207e-19 1.97204e-05
6 1 0.357143 0.0714286 0.0330412
19 1 0.285714 0.142857 1.97204e-05
103 1 0.285714 0 0.0661078
117 1 0.285714 0.142857 0.0661078
7 1 0.428571 9.25384e-19 1.97204e-05
21 1 0.428571 0.142857 1.97204e-05
105 1 0.428571 4.02746e-18 0.0661078
119 1 0.428571 0.142857 0.0661078
8 1 0.5 0.0714286 0.0330412
9 1 0.571429 3.26561e-19 1.97204e-05
23 1 0.571429 0.142857 1.97204e-05
107 1 0.571429 0 0.0661078
121 1 0.571429 0.142857 0.0661078
10 1 0.642857 0.0714286 0.0330412
11 1 0.714286 4.85174e-19 1.97204e-05
25 1 0.714286 0.142857 1.97204e-05
109 1 0.714286 9.79813e-19 0.0661078
123 1 0.714286 0.142857 0.0661078
12 1 0.785714 0.0714286 0.0330412
13 1 0.857143 4.71256e-19 1.97204e-05
14 1 0.928571 0.0714286 0.0330412
27 1 0.857143 0.142857 1.97204e-05
111 1 0.857143 0 0.0661078
125 1 0.857143 0.142857 0.0661078
16 1 0.0714286 0.214286 0.0330412
29 1 2.23591e-19 0.285714 1.97204e-05
30 1 0.0714286 0.357143 0.0330412
31 1 0.142857 0.285714 1.97204e-05
127 1 3.22989e-17 0.285714 0.0661078
129 1 0.142857 0.285714 0.0661078
18 1 0.214286 0.214286 0.0330412
20 1 0.357143 0.214286 0.0330412
32 1 0.214286 0.357143 0.0330412
33 1 0.285714 0.285714 1.97204e-05
34 1 0.357143 0.357143 0.0330412
131 1 0.285714 0.285714 0.0661078
22 1 0.5 0.214286 0.0330412
35 1 0.428571 0.285714 1.97204e-05
133 1 0.428571 0.285714 0.0661078
36 1 0.5 0.357143 0.0330412
37 1 0.571429 0.285714 1.97204e-05
135 1 0.571429 0.285714 0.0661078
24 1 0.642857 0.214286 0.0330412
26 1 0.785714 0.214286 0.0330412
38 1 0.642857 0.357143 0.0330412
39 1 0.714286 0.285714 1.97204e-05
137 1 0.714286 0.285714 0.0661078
40 1 0.785714 0.357143 0.0330412
28 1 0.928571 0.214286 0.0330412
41 1 0.857143 0.285714 1.97204e-05
42 1 0.928571 0.357143 0.0330412
139 1 0.857143 0.285714 0.0661078
43 1 6.0573e-19 0.428571 1.97204e-05
45 1 0.142857 0.428571 1.97204e-05
141 1 2.36423e-18 0.428571 0.0661078
143 1 0.142857 0.428571 0.0661078
44 1 0.0714286 0.5 0.0330412
57 1 3.6065e-19 0.571429 1.97204e-05
59 1 0.142857 0.571429 1.97204e-05
155 1 0 0.571429 0.0661078
157 1 0.142857 0.571429 0.0661078
47 1 0.285714 0.428571 1.97204e-05
145 1 0.285714 0.428571 0.0661078
46 1 0.214286 0.5 0.0330412
48 1 0.357143 0.5 0.0330412
61 1 0.285714 0.571429 1.97204e-05
159 1 0.285714 0.571429 0.0661078
49 1 0.428571 0.428571 1.97204e-05
147 1 0.428571 0.428571 0.0661078
51 1 0.571429 0.428571 1.97204e-05
149 1 0.571429 0.428571 0.0661078
63 1 0.428571 0.571429 1.97204e-05
161 1 0.428571 0.571429 0.0661078
50 1 0.5 0.5 0.0330412
65 1 0.571429 0.571429 1.97204e-05
163 1 0.571429 0.571429 0.0661078
53 1 0.714286 0.428571 1.97204e-05
151 1 0.714286 0.428571 0.0661078
52 1 0.642857 0.5 0.0330412
67 1 0.714286 0.571429 1.97204e-05
165 1 0.714286 0.571429 0.0661078
54 1 0.785714 0.5 0.0330412
55 1 0.857143 0.428571 1.97204e-05
153 1 0.857143 0.428571 0.0661078
56 1 0.928571 0.5 0.0330412
69 1 0.857143 0.571429 1.97204e-05
167 1 0.857143 0.571429 0.0661078
58 1 0.0714286 0.642857 0.0330412
71 1 1.16081e-19 0.714286 1.97204e-05
73 1 0.142857 0.714286 1.97204e-05
169 1 4.66705e-19 0.714286 0.0661078
171 1 0.142857 0.714286 0.0661078
72 1 0.0714286 0.785714 0.0330412
60 1 0.214286 0.642857 0.0330412
62 1 0.357143 0.642857 0.0330412
75 1 0.285714 0.714286 1.97204e-05
173 1 0.285714 0.714286 0.0661078
74 1 0.214286 0.785714 0.0330412
76 1 0.357143 0.785714 0.0330412
77 1 0.428571 0.714286 1.97204e-05
175 1 0.428571 0.714286 0.0661078
64 1 0.5 0.642857 0.0330412
79 1 0.571429 0.714286 1.97204e-05
177 1 0.571429 0.714286 0.0661078
78 1 0.5 0.785714 0.0330412
66 1 0.642857 0.642857 0.0330412
81 1 0.714286 0.714286 1.97204e-05
179 1 0.714286 0.714286 0.0661078
68 1 0.785714 0.642857 0.0330412
80 1 0.642857 0.785714 0.0330412
82 1 0.785714 0.785714 0.0330412
70 1 0.928571 0.642857 0.0330412
83 1 0.857143 0.714286 1.97204e-05
181 1 0.857143 0.714286 0.0661078
84 1 0.928571 0.785714 0.0330412
85 1 3.73633e-19 0.857143 1.97204e-05
86 1 0.0714286 0.928571 0.0330412
87 1 0.142857 0.857143 1.97204e-05
183 1 0 0.857143 0.0661078
185 1 0.142857 0.857143 0.0661078
88 1 0.214286 0.928571 0.0330412
89 1 0.285714 0.857143 1.97204e-05
90 1 0.357143 0.928571 0.0330412
187 1 0.285714 0.857143 0.0661078
91 1 0.428571 0.857143 1.97204e-05
189 1 0.428571 0.857143 0.0661078
92 1 0.5 0.928571 0.0330412
93 1 0.571429 0.857143 1.97204e-05
191 1 0.571429 0.857143 0.0661078
94 1 0.642857 0.928571 0.0330412
95 1 0.714286 0.857143 1.97204e-05
193 1 0.714286 0.857143 0.0661078
96 1 0.785714 0.928571 0.0330412
97 1 0.857143 0.857143 1.97204e-05
98 1 0.928571 0.928571 0.0330412
195 1 0.857143 0.857143 0.0661078
100 1 0.0714286 0.0714286 0.0991754
197 1 2.42501e-14 3.28516e-14 0.132232
198 1 0.0714286 0.0714286 0.16529
199 1 0.142857 6.58131e-14 0.132232
211 1 1.10847e-13 0.142857 0.132232
213 1 0.142857 0.142857 0.132232
102 1 0.214286 0.0714286 0.0991754
104 1 0.357143 0.0714286 0.0991754
200 1 0.214286 0.0714286 0.16529
201 1 0.285714 7.68907e-14 0.132232
202 1 0.357143 0.0714286 0.16529
215 1 0.285714 0.142857 0.132232
106 1 0.5 0.0714286 0.0991754
217 1 0.428571 0.142857 0.132232
204 1 0.5 0.0714286 0.16529
205 1 0.571429 7.62158e-14 0.132232
219 1 0.571429 0.142857 0.132232
108 1 0.642857 0.0714286 0.0991754
110 1 0.785714 0.0714286 0.0991754
206 1 0.642857 0.0714286 0.16529
207 1 0.714286 2.86986e-14 0.132232
221 1 0.714286 0.142857 0.132232
208 1 0.785714 0.0714286 0.16529
112 1 0.928571 0.0714286 0.0991754
209 1 0.857143 6.5018e-14 0.132232
210 1 0.928571 0.0714286 0.16529
223 1 0.857143 0.142857 0.132232
114 1 0.0714286 0.214286 0.0991754
128 1 0.0714286 0.357143 0.0991754
212 1 0.0714286 0.214286 0.16529
225 1 1.10594e-13 0.285714 0.132232
226 1 0.0714286 0.357143 0.16529
227 1 0.142857 0.285714 0.132232
116 1 0.214286 0.214286 0.0991754
118 1 0.357143 0.214286 0.0991754
130 1 0.214286 0.357143 0.0991754
132 1 0.357143 0.357143 0.0991754
214 1 0.214286 0.214286 0.16529
216 1 0.357143 0.214286 0.16529
228 1 0.214286 0.357143 0.16529
229 1 0.285714 0.285714 0.132232
230 1 0.357143 0.357143 0.16529
120 1 0.5 0.214286 0.0991754
134 1 0.5 0.357143 0.0991754
218 1 0.5 0.214286 0.16529
231 1 0.428571 0.285714 0.132232
232 1 0.5 0.357143 0.16529
233 1 0.571429 0.285714 0.132232
122 1 0.642857 0.214286 0.0991754
124 1 0.785714 0.214286 0.0991754
136 1 0.642857 0.357143 0.0991754
138 1 0.785714 0.357143 0.0991754
220 1 0.642857 0.214286 0.16529
222 1 0.785714 0.214286 0.16529
234 1 0.642857 0.357143 0.16529
235 1 0.714286 0.285714 0.132232
236 1 0.785714 0.357143 0.16529
126 1 0.928571 0.214286 0.0991754
140 1 0.928571 0.357143 0.0991754
224 1 0.928571 0.214286 0.16529
237 1 0.857143 0.285714 0.132232
238 1 0.928571 0.357143 0.16529
142 1 0.0714286 0.5 0.0991754
239 1 3.01354e-14 0.428571 0.132232
241 1 0.142857 0.428571 0.132232
240 1 0.0714286 0.5 0.16529
253 1 1.76059e-18 0.571429 0.132232
255 1 0.142857 0.571429 0.132232
144 1 0.214286 0.5 0.0991754
146 1 0.357143 0.5 0.0991754
243 1 0.285714 0.428571 0.132232
242 1 0.214286 0.5 0.16529
244 1 0.357143 0.5 0.16529
257 1 0.285714 0.571429 0.132232
148 1 0.5 0.5 0.0991754
245 1 0.428571 0.428571 0.132232
247 1 0.571429 0.428571 0.132232
259 1 0.428571 0.571429 0.132232
246 1 0.5 0.5 0.16529
261 1 0.571429 0.571429 0.132232
150 1 0.642857 0.5 0.0991754
152 1 0.785714 0.5 0.0991754
249 1 0.714286 0.428571 0.132232
248 1 0.642857 0.5 0.16529
263 1 0.714286 0.571429 0.132232
250 1 0.785714 0.5 0.16529
154 1 0.928571 0.5 0.0991754
251 1 0.857143 0.428571 0.132232
252 1 0.928571 0.5 0.16529
265 1 0.857143 0.571429 0.132232
156 1 0.0714286 0.642857 0.0991754
170 1 0.0714286 0.785714 0.0991754
254 1 0.0714286 0.642857 0.16529
267 1 0 0.714286 0.132232
269 1 0.142857 0.714286 0.132232
268 1 0.0714286 0.785714 0.16529
158 1 0.214286 0.642857 0.0991754
160 1 0.357143 0.642857 0.0991754
172 1 0.214286 0.785714 0.0991754
174 1 0.357143 0.785714 0.0991754
256 1 0.214286 0.642857 0.16529
258 1 0.357143 0.642857 0.16529
271 1 0.285714 0.714286 0.132232
270 1 0.214286 0.785714 0.16529
272 1 0.357143 0.785714 0.16529
162 1 0.5 0.642857 0.0991754
176 1 0.5 0.785714 0.0991754
273 1 0.428571 0.714286 0.132232
260 1 0.5 0.642857 0.16529
275 1 0.571429 0.714286 0.132232
274 1 0.5 0.785714 0.16529
164 1 0.642857 0.642857 0.0991754
166 1 0.785714 0.642857 0.0991754
178 1 0.642857 0.785714 0.0991754
180 1 0.785714 0.785714 0.0991754
262 1 0.642857 0.642857 0.16529
277 1 0.714286 0.714286 0.132232
264 1 0.785714 0.642857 0.16529
276 1 0.642857 0.785714 0.16529
278 1 0.785714 0.785714 0.16529
168 1 0.928571 0.642857 0.0991754
182 1 0.928571 0.785714 0.0991754
266 1 0.928571 0.642857 0.16529
279 1 0.857143 0.714286 0.132232
280 1 0.928571 0.785714 0.16529
184 1 0.0714286 0.928571 0.0991754
281 1 1.275e-18 0.857143 0.132232
282 1 0.0714286 0.928571 0.16529
283 1 0.142857 0.857143 0.132232
186 1 0.214286 0.928571 0.0991754
188 1 0.357143 0.928571 0.0991754
284 1 0.214286 0.928571 0.16529
285 1 0.285714 0.857143 0.132232
286 1 0.357143 0.928571 0.16529
203 1 0.428571 1 0.132232
190 1 0.5 0.928571 0.0991754
287 1 0.428571 0.857143 0.132232
288 1 0.5 0.928571 0.16529
289 1 0.571429 0.857143 0.132232
192 1 0.642857 0.928571 0.0991754
194 1 0.785714 0.928571 0.0991754
290 1 0.642857 0.928571 0.16529
291 1 0.714286 0.857143 0.132232
292 1 0.785714 0.928571 0.16529
196 1 0.928571 0.928571 0.0991754
293 1 0.857143 0.857143 0.132232
294 1 0.928571 0.928571 0.16529
295 1 1.35921e-13 7.30865e-14 0.198347
297 1 0.142857 1.10797e-13 0.198347
311 1 0.142857 0.142857 0.198347
296 1 0.0714286 0.0714286 0.231414
299 1 0.285714 4.93638e-14 0.198347
313 1 0.285714 0.142857 0.198347
298 1 0.214286 0.0714286 0.231414
300 1 0.357143 0.0714286 0.231414
301 1 0.428571 8.51613e-14 0.198347
315 1 0.428571 0.142857 0.198347
303 1 0.571429 5.29753e-14 0.198347
317 1 0.571429 0.142857 0.198347
302 1 0.5 0.0714286 0.231414
305 1 0.714286 8.02905e-14 0.198347
319 1 0.714286 0.142857 0.198347
304 1 0.642857 0.0714286 0.231414
306 1 0.785714 0.0714286 0.231414
309 1 1 0.142857 0.198347
307 1 0.857143 9.09215e-14 0.198347
321 1 0.857143 0.142857 0.198347
308 1 0.928571 0.0714286 0.231414
325 1 0.142857 0.285714 0.198347
310 1 0.0714286 0.214286 0.231414
324 1 0.0714286 0.357143 0.231414
327 1 0.285714 0.285714 0.198347
312 1 0.214286 0.214286 0.231414
314 1 0.357143 0.214286 0.231414
326 1 0.214286 0.357143 0.231414
328 1 0.357143 0.357143 0.231414
329 1 0.428571 0.285714 0.198347
331 1 0.571429 0.285714 0.198347
316 1 0.5 0.214286 0.231414
330 1 0.5 0.357143 0.231414
333 1 0.714286 0.285714 0.198347
318 1 0.642857 0.214286 0.231414
320 1 0.785714 0.214286 0.231414
332 1 0.642857 0.357143 0.231414
334 1 0.785714 0.357143 0.231414
323 1 1 0.285714 0.198347
335 1 0.857143 0.285714 0.198347
322 1 0.928571 0.214286 0.231414
336 1 0.928571 0.357143 0.231414
337 1 1.16178e-13 0.428571 0.198347
339 1 0.142857 0.428571 0.198347
353 1 0.142857 0.571429 0.198347
338 1 0.0714286 0.5 0.231414
341 1 0.285714 0.428571 0.198347
355 1 0.285714 0.571429 0.198347
340 1 0.214286 0.5 0.231414
342 1 0.357143 0.5 0.231414
343 1 0.428571 0.428571 0.198347
345 1 0.571429 0.428571 0.198347
357 1 0.428571 0.571429 0.198347
359 1 0.571429 0.571429 0.198347
344 1 0.5 0.5 0.231414
347 1 0.714286 0.428571 0.198347
361 1 0.714286 0.571429 0.198347
346 1 0.642857 0.5 0.231414
348 1 0.785714 0.5 0.231414
351 1 1 0.571429 0.198347
349 1 0.857143 0.428571 0.198347
363 1 0.857143 0.571429 0.198347
350 1 0.928571 0.5 0.231414
365 1 0 0.714286 0.198347
367 1 0.142857 0.714286 0.198347
352 1 0.0714286 0.642857 0.231414
366 1 0.0714286 0.785714 0.231414
369 1 0.285714 0.714286 0.198347
354 1 0.214286 0.642857 0.231414
356 1 0.357143 0.642857 0.231414
368 1 0.214286 0.785714 0.231414
370 1 0.357143 0.785714 0.231414
371 1 0.428571 0.714286 0.198347
373 1 0.571429 0.714286 0.198347
358 1 0.5 0.642857 0.231414
372 1 0.5 0.785714 0.231414
375 1 0.714286 0.714286 0.198347
360 1 0.642857 0.642857 0.231414
362 1 0.785714 0.642857 0.231414
374 1 0.642857 0.785714 0.231414
376 1 0.785714 0.785714 0.231414
377 1 0.857143 0.714286 0.198347
364 1 0.928571 0.642857 0.231414
378 1 0.928571 0.785714 0.231414
381 1 0.142857 0.857143 0.198347
380 1 0.0714286 0.928571 0.231414
383 1 0.285714 0.857143 0.198347
382 1 0.214286 0.928571 0.231414
384 1 0.357143 0.928571 0.231414
385 1 0.428571 0.857143 0.198347
387 1 0.571429 0.857143 0.198347
386 1 0.5 0.928571 0.231414
389 1 0.714286 0.857143 0.198347
388 1 0.642857 0.928571 0.231414
390 1 0.785714 0.928571 0.231414
379 1 1 0.857143 0.198347
391 1 0.857143 0.857143 0.198347
392 1 0.928571 0.928571 0.231414
393 1 9.56444e-14 2.45613e-13 0.264481
394 1 0.0714286 0.0714286 0.297502
395 1 0.142857 1.29373e-13 0.264481
409 1 0.142857 0.142857 0.264481
396 1 0.214286 0.0714286 0.297502
398 1 0.357143 0.0714286 0.297502
411 1 0.285714 0.142857 0.264481
399 1 0.428571 3.45649e-13 0.264481
413 1 0.428571 0.142857 0.264481
400 1 0.5 0.0714286 0.297502
415 1 0.571429 0.142857 0.264481
402 1 0.642857 0.0714286 0.297502
403 1 0.714286 8.47922e-14 0.264481
417 1 0.714286 0.142857 0.264481
404 1 0.785714 0.0714286 0.297502
407 1 1 0.142857 0.264481
405 1 0.857143 2.09204e-13 0.264481
406 1 0.928571 0.0714286 0.297502
419 1 0.857143 0.142857 0.264481
408 1 0.0714286 0.214286 0.297502
422 1 0.0714286 0.357143 0.297502
423 1 0.142857 0.285714 0.264481
410 1 0.214286 0.214286 0.297502
412 1 0.357143 0.214286 0.297502
424 1 0.214286 0.357143 0.297502
425 1 0.285714 0.285714 0.264481
426 1 0.357143 0.357143 0.297502
414 1 0.5 0.214286 0.297502
427 1 0.428571 0.285714 0.264481
428 1 0.5 0.357143 0.297502
429 1 0.571429 0.285714 0.264481
416 1 0.642857 0.214286 0.297502
418 1 0.785714 0.214286 0.297502
430 1 0.642857 0.357143 0.297502
431 1 0.714286 0.285714 0.264481
432 1 0.785714 0.357143 0.297502
421 1 1 0.285714 0.264481
420 1 0.928571 0.214286 0.297502
433 1 0.857143 0.285714 0.264481
434 1 0.928571 0.357143 0.297502
435 1 2.35052e-13 0.428571 0.264481
437 1 0.142857 0.428571 0.264481
436 1 0.0714286 0.5 0.297502
451 1 0.142857 0.571429 0.264481
439 1 0.285714 0.428571 0.264481
438 1 0.214286 0.5 0.297502
440 1 0.357143 0.5 0.297502
453 1 0.285714 0.571429 0.264481
441 1 0.428571 0.428571 0.264481
443 1 0.571429 0.428571 0.264481
455 1 0.428571 0.571429 0.264481
442 1 0.5 0.5 0.297502
457 1 0.571429 0.571429 0.264481
445 1 0.714286 0.428571 0.264481
444 1 0.642857 0.5 0.297502
459 1 0.714286 0.571429 0.264481
446 1 0.785714 0.5 0.297502
449 1 1 0.571429 0.264481
447 1 0.857143 0.428571 0.264481
448 1 0.928571 0.5 0.297502
461 1 0.857143 0.571429 0.264481
450 1 0.0714286 0.642857 0.297502
463 1 6.03102e-18 0.714286 0.264481
465 1 0.142857 0.714286 0.264481
464 1 0.0714286 0.785714 0.297502
452 1 0.214286 0.642857 0.297502
454 1 0.357143 0.642857 0.297502
467 1 0.285714 0.714286 0.264481
466 1 0.214286 0.785714 0.297502
468 1 0.357143 0.785714 0.297502
469 1 0.428571 0.714286 0.264481
456 1 0.5 0.642857 0.297502
471 1 0.571429 0.714286 0.264481
470 1 0.5 0.785714 0.297502
458 1 0.642857 0.642857 0.297502
473 1 0.714286 0.714286 0.264481
460 1 0.785714 0.642857 0.297502
472 1 0.642857 0.785714 0.297502
474 1 0.785714 0.785714 0.297502
462 1 0.928571 0.642857 0.297502
475 1 0.857143 0.714286 0.264481
476 1 0.928571 0.785714 0.297502
478 1 0.0714286 0.928571 0.297502
479 1 0.142857 0.857143 0.264481
397 1 0.285714 1 0.264481
480 1 0.214286 0.928571 0.297502
481 1 0.285714 0.857143 0.264481
482 1 0.357143 0.928571 0.297502
401 1 0.571429 1 0.264481
483 1 0.428571 0.857143 0.264481
484 1 0.5 0.928571 0.297502
485 1 0.571429 0.857143 0.264481
486 1 0.642857 0.928571 0.297502
487 1 0.714286 0.857143 0.264481
488 1 0.785714 0.928571 0.297502
477 1 1 0.857143 0.264481
489 1 0.857143 0.857143 0.264481
490 1 0.928571 0.928571 0.297502
492 2 0.00997156 0.0238491 0.442322
493 2 0.221437 0.0164558 0.434202
496 2 0.459125 0.0154317 0.446402
497 2 0.68705 0.00425603 0.439979
499 2 0.00614993 0.231223 0.451466
501 2 0.232102 0.221389 0.430814
502 2 0.243267 0.253964 0.44921
503 2 0.449056 0.238117 0.44022
504 2 0.501652 0.237239 0.439811
505 2 0.706846 0.22401 0.430016
506 2 0.719161 0.251353 0.450011
500 2 0.993885 0.244121 0.428566
508 2 0.0186278 0.484124 0.432435
510 2 0.250426 0.457536 0.433282
509 2 0.22493 0.493175 0.446744
511 2 0.45632 0.460262 0.43535
512 2 0.494398 0.490451 0.444682
513 2 0.731648 0.458647 0.436289
514 2 0.694362 0.492071 0.443744
507 2 0.98142 0.466596 0.447596
515 2 0.0205558 0.727839 0.436739
518 2 0.22029 0.69499 0.436289
517 2 0.255064 0.731026 0.443736
519 2 0.453779 0.718847 0.433598
520 2 0.496935 0.70717 0.446432
521 2 0.700878 0.690353 0.437418
522 2 0.725128 0.735652 0.442612
516 2 0.979501 0.698178 0.443286
494 2 0.253919 0.983599 0.44583
495 2 0.491599 0.984614 0.43363
498 2 0.738957 0.995784 0.440043
491 2 0.990071 0.976202 0.437708
525 2 0.226909 0.00552666 0.539191
528 2 0.483893 0.0117723 0.539851
529 2 0.68944 0.0116158 0.549404
524 2 0.990318 0.00520275 0.538942
531 2 0.0136744 0.236533 0.56039
534 2 0.222239 0.21978 0.555334
533 2 0.25311 0.255587 0.544663
535 2 0.484159 0.24455 0.53898
536 2 0.46655 0.230801 0.561022
538 2 0.719511 0.2135 0.553732
537 2 0.70651 0.261856 0.546268
532 2 0.98638 0.238826 0.539605
540 2 0.00877199 0.455579 0.556927
541 2 0.224858 0.452919 0.552264
542 2 0.250501 0.497801 0.547735
544 2 0.487273 0.478938 0.539274
543 2 0.463438 0.471779 0.560725
545 2 0.721899 0.467538 0.539126
546 2 0.704122 0.483158 0.56087
539 2 0.99127 0.495136 0.543071
548 2 0.0193349 0.727807 0.554614
549 2 0.234702 0.738136 0.546705
550 2 0.240659 0.687869 0.553296
551 2 0.452487 0.707907 0.555533
552 2 0.498231 0.718112 0.544466
553 2 0.691476 0.717648 0.543347
554 2 0.734529 0.708376 0.556656
547 2 0.980709 0.698201 0.545386
523 2 0.00972453 0.994842 0.561058
526 2 0.248446 0.994516 0.56081
527 2 0.466823 0.98828 0.560151
530 2 0.736576 0.988442 0.550596
557 2 0.21531 0.0138017 0.660587
559 2 0.467744 0.0212064 0.653703
561 2 0.687131 0.00353912 0.661435
556 2 0.982063 0.0154833 0.654728
564 2 0.0222446 0.251697 0.660515
565 2 0.214703 0.225454 0.661783
566 2 0.260645 0.249902 0.658224
568 2 0.490157 0.218976 0.654866
567 2 0.460538 0.256379 0.665127
570 2 0.716299 0.237486 0.647923
563 2 0.977817 0.22365 0.65948
572 2 0.0187215 0.486953 0.653335
573 2 0.212994 0.483795 0.658432
574 2 0.262361 0.466912 0.661567
575 2 0.464472 0.495277 0.653853
576 2 0.486234 0.455427 0.666146
577 2 0.687512 0.480213 0.661955
578 2 0.738496 0.4705 0.658044
571 2 0.981335 0.463754 0.666667
579 2 0.0229021 0.725953 0.659547
582 2 0.213908 0.720433 0.656067
581 2 0.261447 0.705591 0.663931
583 2 0.454259 0.713867 0.652735
585 2 0.713604 0.730262 0.650818
580 2 0.977166 0.70007 0.660451
555 2 0.0179921 0.984567 0.665266
558 2 0.26004 0.986242 0.659408
560 2 0.482973 0.97885 0.666291
562 2 0.738879 0.996504 0.658565
569 2 0.709722 0.237867 0.672083
584 2 0.496433 0.712146 0.667266
586 2 0.712414 0.695757 0.669182
589 2 0.211479 0.000764159 0.771071
591 2 0.449756 0.00445234 0.771919
593 2 0.690594 0.0112114 0.766301
587 2 0.974003 0.00059296 0.768292
596 2 0.0252598 0.240944 0.76694
597 2 0.235639 0.234455 0.757957
598 2 0.239715 0.240912 0.782044
599 2 0.449052 0.237645 0.770083
600 2 0.501656 0.237709 0.76992
601 2 0.706224 0.235943 0.758262
602 2 0.719787 0.23942 0.781733
595 2 0.974792 0.234412 0.773067
603 2 0.0188651 0.475813 0.778487
605 2 0.228602 0.499726 0.771839
606 2 0.246757 0.450995 0.768164
608 2 0.493899 0.480792 0.761742
607 2 0.456814 0.469917 0.778258
609 2 0.715498 0.453815 0.76311
610 2 0.71052 0.496903 0.77689
604 2 0.981182 0.474904 0.761511
612 2 0.0173784 0.731804 0.767186
613 2 0.226617 0.736331 0.767694
614 2 0.248738 0.689672 0.772304
615 2 0.455448 0.703369 0.763409
616 2 0.49526 0.722648 0.776587
617 2 0.710899 0.691466 0.776916
618 2 0.715118 0.734537 0.763083
611 2 0.982672 0.694213 0.772815
588 2 0.0260572 0.999449 0.77171
590 2 0.263874 0.999274 0.768931
592 2 0.500954 0.995593 0.768084
594 2 0.735415 0.988827 0.773699
622 2 0.252356 0.0182661 0.885539
624 2 0.479619 0.0130639 0.869614
626 2 0.738609 0.00572345 0.880842
619 2 0.9938 0.0178459 0.871528
627 2 0.00745541 0.23091 0.891246
629 2 0.217908 0.231162 0.872559
630 2 0.257447 0.244196 0.887436
631 2 0.47108 0.221065 0.870774
632 2 0.479633 0.25429 0.88923
633 2 0.734908 0.245332 0.874268
634 2 0.691111 0.230024 0.885727
628 2 0.992593 0.24445 0.86875
636 2 0.00980247 0.452702 0.875784
637 2 0.223763 0.454399 0.883551
638 2 0.251597 0.496311 0.876452
639 2 0.457712 0.469537 0.888615
640 2 0.493001 0.481169 0.871384
641 2 0.693413 0.484341 0.886968
642 2 0.732598 0.46637 0.873027
635 2 0.990242 0.498006 0.884216
644 2 0.0219721 0.721927 0.885289
645 2 0.212488 0.709172 0.883035
646 2 0.262868 0.716846 0.876969
647 2 0.44972 0.71861 0.87912
648 2 0.500992 0.707415 0.880879
649 2 0.736569 0.708732 0.874976
650 2 0.689434 0.717287 0.885023
643 2 0.978088 0.704081 0.874715
620 2 0.00624726 0.982203 0.888475
621 2 0.222997 0.981782 0.874462
623 2 0.471098 0.986989 0.890386
625 2 0.687403 0.994321 0.879159
651 2 0.0179825 0.0122828 0.983147
654 2 0.256631 0.0163946 0.986264
656 2 0.499214 0.00855459 0.993253
657 2 0.728629 0.0176904 0.984607
660 2 0.0262708 0.235944 0.989929
661 2 0.211672 0.233886 0.989415
662 2 0.263677 0.241472 0.990558
663 2 0.462235 0.215965 0.993202
664 2 0.48846 0.259404 0.986769
666 2 0.724401 0.221483 0.981976
665 2 0.701619 0.253867 0.997993
659 2 0.973796 0.239408 0.990038
667 2 0.0130261 0.486425 0.999235
669 2 0.245514 0.497646 0.984641
670 2 0.229841 0.453067 0.995335
671 2 0.471746 0.450125 0.986963
672 2 0.47898 0.500579 0.993006
673 2 0.739065 0.471875 0.990051
674 2 0.686944 0.478844 0.989923
668 2 0.987017 0.464286 0.980736
676 2 0.0221814 0.70894 0.983703
678 2 0.219268 0.723531 0.982785
677 2 0.256086 0.702476 0.997184
679 2 0.451645 0.704776 0.993645
680 2 0.499059 0.721227 0.98633
681 2 0.704003 0.688766 0.992188
682 2 0.722004 0.737253 0.987786
675 2 0.977879 0.717084 0.996268
653 2 0.21873 0.983655 0.993708
655 2 0.451492 0.991495 0.986717
658 2 0.697381 0.982358 0.995367
652 2 0.982066 0.987755 0.996825
