ITEM: TIMESTEP
0
ITEM: NUMBER OF ATOMS
682
ITEM: BOX BOUNDS pp pp ff
0.0000000000000000e+00 2.3140599999999999e+01
0.0000000000000000e+00 2.3140599999999999e+01
0.0000000000000000e+00 5.0000000000000000e+01
ITEM: ATOMS id type x y z fx fy fz vx vy vz
1 1 1.47999e-20 2.12008e-19 3.5239e-05 0 0 0 3.40397e-17 1.47999e-16 0.070469
2 1 1.6529 1.6529 1.65287 0 0 0 3.55937e-16 2.5946e-17 -0.0600204
3 1 3.3058 2.72572e-19 3.5239e-05 0 0 0 1.04062e-16 2.54812e-16 0.070469
15 1 2.04238e-19 3.3058 3.5239e-05 0 0 0 1.67239e-16 1.04455e-16 0.070469
17 1 3.3058 3.3058 3.5239e-05 0 0 0 1.02929e-16 -1.34517e-16 0.070469
99 1 4.04037e-19 6.57299e-19 3.30579 0 0 0 4.58056e-16 7.10487e-16 -0.0291497
101 1 3.3058 4.92373e-19 3.30579 0 0 0 1.72789e-16 5.7708e-16 -0.0291497
113 1 3.99967e-19 3.3058 3.30579 0 0 0 1.0855e-14 -1.03055e-14 -0.0291497
115 1 3.3058 3.3058 3.30579 0 0 0 -1.24987e-14 -1.24555e-14 -0.0291497
4 1 4.9587 1.6529 1.65287 0 0 0 1.19234e-16 -1.07299e-16 -0.0600204
5 1 6.6116 2.47158e-19 3.5239e-05 0 0 0 2.72715e-16 3.24117e-16 0.070469
6 1 8.2645 1.6529 1.65287 0 0 0 1.75286e-16 9.84192e-17 -0.0600204
19 1 6.6116 3.3058 3.5239e-05 0 0 0 -2.09239e-16 -2.61912e-16 0.070469
103 1 6.6116 9.86042e-19 3.30579 0 0 0 -9.12969e-17 9.78642e-16 -0.0291497
117 1 6.6116 3.3058 3.30579 0 0 0 1.32362e-14 -1.26857e-14 -0.0291497
7 1 9.9174 2.61958e-19 3.5239e-05 0 0 0 -2.25524e-16 3.43357e-16 0.070469
21 1 9.9174 3.3058 3.5239e-05 0 0 0 -3.49184e-16 -1.64348e-16 0.070469
105 1 9.9174 1.01971e-18 3.30579 0 0 0 -1.69394e-15 1.14662e-15 -0.0291497
119 1 9.9174 3.3058 3.30579 0 0 0 -1.11105e-15 -4.32804e-16 -0.0291497
8 1 11.5703 1.6529 1.65287 0 0 0 5.60083e-16 1.55399e-16 -0.0600204
9 1 13.2232 2.08678e-19 3.5239e-05 0 0 0 2.07868e-16 2.94518e-16 0.070469
23 1 13.2232 3.3058 3.5239e-05 0 0 0 -4.33418e-17 -2.42556e-16 0.070469
107 1 13.2232 6.14195e-19 3.30579 0 0 0 4.14766e-16 6.36395e-16 -0.0291497
121 1 13.2232 3.3058 3.30579 0 0 0 -9.89598e-15 -1.1335e-14 -0.0291497
10 1 14.8761 1.6529 1.65287 0 0 0 -1.2906e-16 2.95258e-16 -0.0600204
11 1 16.529 9.17592e-20 3.5239e-05 0 0 0 -2.50835e-17 1.62799e-16 0.070469
25 1 16.529 3.3058 3.5239e-05 0 0 0 -4.97027e-17 -2.05649e-16 0.070469
109 1 16.529 1.1629e-18 3.30579 0 0 0 -1.54976e-16 1.21359e-15 -0.0291497
123 1 16.529 3.3058 3.30579 0 0 0 8.82474e-15 -1.00657e-14 -0.0291497
12 1 18.1819 1.6529 1.65287 0 0 0 8.26434e-16 4.13737e-16 -0.0600204
13 1 19.8348 9.49505e-20 3.5239e-05 0 0 0 -4.39556e-16 2.53217e-16 0.070469
14 1 21.4877 1.6529 1.65287 0 0 0 -2.84158e-16 6.3177e-17 -0.0600204
27 1 19.8348 3.3058 3.5239e-05 0 0 0 5.32796e-17 -1.38945e-16 0.070469
111 1 19.8348 1.13127e-19 3.30579 0 0 0 -3.71662e-16 -7.02069e-17 -0.0291497
125 1 19.8348 3.3058 3.30579 0 0 0 -1.25623e-14 -1.17954e-14 -0.0291497
16 1 1.6529 4.9587 1.65287 0 0 0 2.24218e-16 3.06545e-16 -0.0600204
29 1 5.91995e-20 6.6116 3.5239e-05 0 0 0 1.21359e-16 2.93336e-16 0.070469
30 1 1.6529 8.2645 1.65287 0 0 0 1.25799e-17 -3.66528e-17 -0.0600204
31 1 3.3058 6.6116 3.5239e-05 0 0 0 -7.95262e-17 6.23325e-17 0.070469
127 1 5.58695e-19 6.6116 3.30579 0 0 0 1.02807e-14 1.04841e-14 -0.0291497
129 1 3.3058 6.6116 3.30579 0 0 0 -1.2407e-14 1.37273e-14 -0.0291497
18 1 4.9587 4.9587 1.65287 0 0 0 -2.8081e-16 -2.7194e-18 -0.0600204
20 1 8.2645 4.9587 1.65287 0 0 0 8.56543e-16 -3.49705e-17 -0.0600204
32 1 4.9587 8.2645 1.65287 0 0 0 1.08554e-16 4.49315e-16 -0.0600204
33 1 6.6116 6.6116 3.5239e-05 0 0 0 2.78723e-16 3.0187e-16 0.070469
34 1 8.2645 8.2645 1.65287 0 0 0 2.18899e-16 3.80704e-16 -0.0600204
131 1 6.6116 6.6116 3.30579 0 0 0 1.20261e-14 1.30887e-14 -0.0291497
22 1 11.5703 4.9587 1.65287 0 0 0 7.71629e-16 -8.47372e-17 -0.0600204
35 1 9.9174 6.6116 3.5239e-05 0 0 0 -2.06631e-16 4.34619e-16 0.070469
133 1 9.9174 6.6116 3.30579 0 0 0 -1.36598e-15 6.88009e-16 -0.0291497
36 1 11.5703 8.2645 1.65287 0 0 0 5.86306e-16 8.11681e-18 -0.0600204
37 1 13.2232 6.6116 3.5239e-05 0 0 0 6.86227e-17 4.07014e-16 0.070469
135 1 13.2232 6.6116 3.30579 0 0 0 -1.00204e-14 1.20748e-14 -0.0291497
24 1 14.8761 4.9587 1.65287 0 0 0 -3.13064e-16 -4.02357e-17 -0.0600204
26 1 18.1819 4.9587 1.65287 0 0 0 8.50484e-16 3.87846e-17 -0.0600204
38 1 14.8761 8.2645 1.65287 0 0 0 5.48058e-18 3.35564e-16 -0.0600204
39 1 16.529 6.6116 3.5239e-05 0 0 0 -1.25925e-17 5.611e-16 0.070469
137 1 16.529 6.6116 3.30579 0 0 0 9.18276e-15 1.00953e-14 -0.0291497
40 1 18.1819 8.2645 1.65287 0 0 0 9.00665e-16 -1.11129e-16 -0.0600204
28 1 21.4877 4.9587 1.65287 0 0 0 -2.66398e-16 -2.14858e-17 -0.0600204
41 1 19.8348 6.6116 3.5239e-05 0 0 0 -2.56038e-16 2.60911e-16 0.070469
42 1 21.4877 8.2645 1.65287 0 0 0 -3.25597e-16 6.1764e-16 -0.0600204
139 1 19.8348 6.6116 3.30579 0 0 0 -1.07834e-14 1.26545e-14 -0.0291497
43 1 0 9.9174 3.5239e-05 0 0 0 3.10797e-17 -6.27359e-16 0.070469
45 1 3.3058 9.9174 3.5239e-05 0 0 0 7.47856e-17 -5.5988e-16 0.070469
141 1 7.66264e-19 9.9174 3.30579 0 0 0 1.10259e-15 -2.03378e-15 -0.0291497
143 1 3.3058 9.9174 3.30579 0 0 0 -4.33451e-16 -1.9864e-15 -0.0291497
44 1 1.6529 11.5703 1.65287 0 0 0 3.99597e-16 1.2023e-15 -0.0600204
57 1 1.89438e-19 13.2232 3.5239e-05 0 0 0 3.24117e-16 2.79434e-16 0.070469
59 1 3.3058 13.2232 3.5239e-05 0 0 0 6.24139e-17 2.37666e-16 0.070469
155 1 0 13.2232 3.30579 0 0 0 1.88698e-17 6.42638e-16 -0.0291497
157 1 3.3058 13.2232 3.30579 0 0 0 -2.61218e-16 5.65702e-16 -0.0291497
47 1 6.6116 9.9174 3.5239e-05 0 0 0 2.42313e-16 -4.27566e-16 0.070469
145 1 6.6116 9.9174 3.30579 0 0 0 3.93029e-16 -1.83814e-15 -0.0291497
46 1 4.9587 11.5703 1.65287 0 0 0 -1.52924e-16 1.29504e-15 -0.0600204
48 1 8.2645 11.5703 1.65287 0 0 0 3.10127e-16 9.71959e-16 -0.0600204
61 1 6.6116 13.2232 3.5239e-05 0 0 0 9.21404e-17 2.42935e-16 0.070469
159 1 6.6116 13.2232 3.30579 0 0 0 8.45767e-16 7.24084e-16 -0.0291497
49 1 9.9174 9.9174 3.5239e-05 0 0 0 -3.30164e-16 -6.51749e-16 0.070469
147 1 9.9174 9.9174 3.30579 0 0 0 -1.00126e-15 -1.42768e-15 -0.0291497
51 1 13.2232 9.9174 3.5239e-05 0 0 0 1.24897e-16 -5.47873e-16 0.070469
149 1 13.2232 9.9174 3.30579 0 0 0 2.64178e-16 -1.05958e-15 -0.0291497
63 1 9.9174 13.2232 3.5239e-05 0 0 0 -4.79631e-16 2.43146e-16 0.070469
161 1 9.9174 13.2232 3.30579 0 0 0 -6.18589e-16 4.0769e-16 -0.0291497
50 1 11.5703 11.5703 1.65287 0 0 0 8.65538e-16 1.50926e-15 -0.0600204
65 1 13.2232 13.2232 3.5239e-05 0 0 0 6.91777e-17 1.45296e-16 0.070469
163 1 13.2232 13.2232 3.30579 0 0 0 2.50719e-16 7.36294e-16 -0.0291497
53 1 16.529 9.9174 3.5239e-05 0 0 0 -1.19716e-18 -8.08611e-16 0.070469
151 1 16.529 9.9174 3.30579 0 0 0 -5.049e-16 -1.75712e-15 -0.0291497
52 1 14.8761 11.5703 1.65287 0 0 0 -5.28911e-16 1.36089e-15 -0.0600204
67 1 16.529 13.2232 3.5239e-05 0 0 0 -1.62349e-16 3.38108e-16 0.070469
165 1 16.529 13.2232 3.30579 0 0 0 -3.44883e-16 7.15851e-16 -0.0291497
54 1 18.1819 11.5703 1.65287 0 0 0 1.0186e-15 1.24934e-15 -0.0600204
55 1 19.8348 9.9174 3.5239e-05 0 0 0 -1.36159e-16 -9.07897e-16 0.070469
153 1 19.8348 9.9174 3.30579 0 0 0 -5.98655e-16 -1.24251e-15 -0.0291497
56 1 21.4877 11.5703 1.65287 0 0 0 -6.17155e-16 1.28421e-15 -0.0600204
69 1 19.8348 13.2232 3.5239e-05 0 0 0 -1.31719e-16 2.5524e-16 0.070469
167 1 19.8348 13.2232 3.30579 0 0 0 -8.07703e-16 7.1214e-16 -0.0291497
58 1 1.6529 14.8761 1.65287 0 0 0 1.06559e-16 -7.39531e-16 -0.0600204
71 1 3.99597e-20 16.529 3.5239e-05 0 0 0 1.46519e-16 -3.18789e-16 0.070469
73 1 3.3058 16.529 3.5239e-05 0 0 0 4.75215e-17 -1.09092e-16 0.070469
169 1 5.44635e-19 16.529 3.30579 0 0 0 9.68282e-16 -1.01594e-16 -0.0291497
171 1 3.3058 16.529 3.30579 0 0 0 -3.67407e-16 -4.63378e-16 -0.0291497
72 1 1.6529 18.1819 1.65287 0 0 0 4.49176e-16 1.36529e-15 -0.0600204
60 1 4.9587 14.8761 1.65287 0 0 0 2.08326e-17 -8.51109e-16 -0.0600204
62 1 8.2645 14.8761 1.65287 0 0 0 3.59776e-16 -7.16406e-16 -0.0600204
75 1 6.6116 16.529 3.5239e-05 0 0 0 4.58727e-16 -2.75034e-16 0.070469
173 1 6.6116 16.529 3.30579 0 0 0 7.10857e-17 -3.7946e-16 -0.0291497
74 1 4.9587 18.1819 1.65287 0 0 0 -1.94918e-16 1.02665e-15 -0.0600204
76 1 8.2645 18.1819 1.65287 0 0 0 1.53635e-16 8.15196e-16 -0.0600204
77 1 9.9174 16.529 3.5239e-05 0 0 0 -4.51656e-16 -2.52806e-16 0.070469
175 1 9.9174 16.529 3.30579 0 0 0 -1.13557e-15 2.30164e-17 -0.0291497
64 1 11.5703 14.8761 1.65287 0 0 0 8.3684e-16 -9.48533e-16 -0.0600204
79 1 13.2232 16.529 3.5239e-05 0 0 0 7.54792e-17 7.34032e-18 0.070469
177 1 13.2232 16.529 3.30579 0 0 0 7.34397e-16 -6.46189e-16 -0.0291497
78 1 11.5703 18.1819 1.65287 0 0 0 5.76235e-16 1.45894e-15 -0.0600204
66 1 14.8761 14.8761 1.65287 0 0 0 -5.17672e-16 -1.24555e-15 -0.0600204
81 1 16.529 16.529 3.5239e-05 0 0 0 -1.33027e-17 -3.32306e-16 0.070469
179 1 16.529 16.529 3.30579 0 0 0 -6.13523e-16 2.39946e-16 -0.0291497
68 1 18.1819 14.8761 1.65287 0 0 0 1.16896e-15 -9.69825e-16 -0.0600204
80 1 14.8761 18.1819 1.65287 0 0 0 -4.14605e-16 1.00547e-15 -0.0600204
82 1 18.1819 18.1819 1.65287 0 0 0 1.01652e-15 1.57321e-15 -0.0600204
70 1 21.4877 14.8761 1.65287 0 0 0 -4.18836e-16 -8.29094e-16 -0.0600204
83 1 19.8348 16.529 3.5239e-05 0 0 0 -2.88598e-16 -5.42566e-17 0.070469
181 1 19.8348 16.529 3.30579 0 0 0 -5.981e-16 -6.18145e-16 -0.0291497
84 1 21.4877 18.1819 1.65287 0 0 0 -4.21796e-16 1.1478e-15 -0.0600204
85 1 1.74639e-19 19.8348 3.5239e-05 0 0 0 3.34477e-16 -1.29129e-16 0.070469
86 1 1.6529 21.4877 1.65287 0 0 0 1.24319e-16 -4.41406e-16 -0.0600204
87 1 3.3058 19.8348 3.5239e-05 0 0 0 -7.72831e-17 6.39054e-17 0.070469
183 1 0 19.8348 3.30579 0 0 0 -1.23579e-16 -9.05059e-16 -0.0291497
185 1 3.3058 19.8348 3.30579 0 0 0 6.84494e-18 -1.351e-15 -0.0291497
88 1 4.9587 21.4877 1.65287 0 0 0 -4.09998e-16 -2.93038e-16 -0.0600204
89 1 6.6116 19.8348 3.5239e-05 0 0 0 -1.01543e-16 -2.47158e-16 0.070469
90 1 8.2645 21.4877 1.65287 0 0 0 9.97581e-16 -2.04238e-16 -0.0600204
187 1 6.6116 19.8348 3.30579 0 0 0 8.94965e-16 -1.00695e-15 -0.0291497
91 1 9.9174 19.8348 3.5239e-05 0 0 0 -4.03771e-16 -8.58393e-17 0.070469
189 1 9.9174 19.8348 3.30579 0 0 0 -7.96707e-16 -1.05542e-15 -0.0291497
92 1 11.5703 21.4877 1.65287 0 0 0 5.32379e-16 -7.94753e-16 -0.0600204
93 1 13.2232 19.8348 3.5239e-05 0 0 0 1.29106e-16 -9.61992e-17 0.070469
191 1 13.2232 19.8348 3.30579 0 0 0 3.76298e-16 -1.39119e-15 -0.0291497
94 1 14.8761 21.4877 1.65287 0 0 0 -5.25164e-16 -3.75917e-16 -0.0600204
95 1 16.529 19.8348 3.5239e-05 0 0 0 1.20025e-17 6.80796e-17 0.070469
193 1 16.529 19.8348 3.30579 0 0 0 -4.18075e-17 -1.27667e-15 -0.0291497
96 1 18.1819 21.4877 1.65287 0 0 0 7.91146e-16 -9.06261e-16 -0.0600204
97 1 19.8348 19.8348 3.5239e-05 0 0 0 -6.80794e-17 3.18197e-17 0.070469
98 1 21.4877 21.4877 1.65287 0 0 0 -7.84393e-17 -3.25597e-16 -0.0600204
195 1 19.8348 19.8348 3.30579 0 0 0 -1.49442e-15 -1.27131e-15 -0.0291497
100 1 1.6529 1.6529 4.9587 0 0 0 2.56009e-12 1.82118e-11 0.00503545
197 1 1.79078e-19 0 6.6116 0 0 0 7.43718e-12 1.01132e-11 0.000981042
198 1 1.6529 1.6529 8.2645 0 0 0 1.2445e-12 1.8727e-11 -0.000981042
199 1 3.3058 0 6.6116 0 0 0 -1.25527e-11 2.02695e-11 0.000981042
211 1 4.98756e-19 3.3058 6.6116 0 0 0 3.41416e-11 -2.8004e-11 0.000981042
213 1 3.3058 3.3058 6.6116 0 0 0 -3.20121e-11 -2.77509e-11 0.000981042
102 1 4.9587 1.6529 4.9587 0 0 0 -2.02297e-13 -1.20894e-11 0.00503545
104 1 8.2645 1.6529 4.9587 0 0 0 -9.46481e-12 9.66e-12 0.00503545
200 1 4.9587 1.6529 8.2645 0 0 0 6.49403e-12 -3.27107e-11 -0.000981042
201 1 6.6116 3.67037e-19 6.6116 0 0 0 1.84692e-11 2.36941e-11 0.000981042
202 1 8.2645 1.6529 8.2645 0 0 0 -1.76912e-11 5.62965e-12 -0.000981042
215 1 6.6116 3.3058 6.6116 0 0 0 1.05391e-11 -1.09202e-11 0.000981042
106 1 11.5703 1.6529 4.9587 0 0 0 8.95209e-12 8.60403e-12 0.00503545
203 1 9.9174 0 6.6116 0 0 0 -1.67526e-13 -1.46379e-11 0.000981042
217 1 9.9174 3.3058 6.6116 0 0 0 -3.03455e-12 -3.26777e-11 0.000981042
204 1 11.5703 1.6529 8.2645 0 0 0 1.93913e-11 9.11766e-12 -0.000981042
205 1 13.2232 2.61218e-19 6.6116 0 0 0 -1.46724e-11 2.34846e-11 0.000981042
219 1 13.2232 3.3058 6.6116 0 0 0 -8.56333e-12 -7.88289e-12 0.000981042
108 1 14.8761 1.6529 4.9587 0 0 0 -5.95167e-13 -9.89642e-12 0.00503545
110 1 18.1819 1.6529 4.9587 0 0 0 2.51654e-12 1.68794e-11 0.00503545
206 1 14.8761 1.6529 8.2645 0 0 0 -1.00938e-11 -2.78612e-11 -0.000981042
207 1 16.529 0 6.6116 0 0 0 7.02588e-12 8.83335e-12 0.000981042
221 1 16.529 3.3058 6.6116 0 0 0 3.23715e-11 -2.36196e-11 0.000981042
208 1 18.1819 1.6529 8.2645 0 0 0 3.83392e-12 2.04349e-11 -0.000981042
112 1 21.4877 1.6529 4.9587 0 0 0 -6.42679e-13 -1.05955e-11 0.00503545
209 1 19.8348 2.96183e-19 6.6116 0 0 0 -9.72636e-12 2.00259e-11 0.000981042
210 1 21.4877 1.6529 8.2645 0 0 0 -4.70855e-12 -3.17012e-11 -0.000981042
223 1 19.8348 3.3058 6.6116 0 0 0 -2.82166e-11 -2.48605e-11 0.000981042
114 1 1.6529 4.9587 4.9587 0 0 0 -2.73809e-12 -3.74981e-13 0.00503545
128 1 1.6529 8.2645 4.9587 0 0 0 2.9416e-12 -1.70253e-11 0.00503545
212 1 1.6529 4.9587 8.2645 0 0 0 1.41048e-12 -2.56808e-12 -0.000981042
225 1 7.75513e-19 6.6116 6.6116 0 0 0 3.40681e-11 2.80816e-11 0.000981042
226 1 1.6529 8.2645 8.2645 0 0 0 4.59327e-12 -1.76442e-11 -0.000981042
227 1 3.3058 6.6116 6.6116 0 0 0 -2.90625e-11 2.8014e-11 0.000981042
116 1 4.9587 4.9587 4.9587 0 0 0 6.76061e-13 2.69855e-13 0.00503545
118 1 8.2645 4.9587 4.9587 0 0 0 1.17571e-11 -8.12576e-14 0.00503545
130 1 4.9587 8.2645 4.9587 0 0 0 -2.02217e-13 1.18996e-11 0.00503545
132 1 8.2645 8.2645 4.9587 0 0 0 -9.32023e-12 -9.40452e-12 0.00503545
214 1 4.9587 4.9587 8.2645 0 0 0 2.3479e-11 -9.17808e-13 -0.000981043
216 1 8.2645 4.9587 8.2645 0 0 0 1.43454e-12 1.5821e-13 -0.000981042
228 1 4.9587 8.2645 8.2645 0 0 0 6.20429e-12 3.17539e-11 -0.000981042
229 1 6.6116 6.6116 6.6116 0 0 0 1.07587e-11 1.09225e-11 0.000981042
230 1 8.2645 8.2645 8.2645 0 0 0 -1.63329e-11 -6.01552e-12 -0.000981042
120 1 11.5703 4.9587 4.9587 0 0 0 -1.04905e-11 -9.10017e-14 0.00503545
134 1 11.5703 8.2645 4.9587 0 0 0 8.79019e-12 -8.3164e-12 0.00503545
218 1 11.5703 4.9587 8.2645 0 0 0 1.6863e-11 1.30964e-14 -0.000981042
231 1 9.9174 6.6116 6.6116 0 0 0 -3.141e-12 3.28315e-11 0.000981042
232 1 11.5703 8.2645 8.2645 0 0 0 1.78878e-11 -9.40776e-12 -0.000981042
233 1 13.2232 6.6116 6.6116 0 0 0 -8.80899e-12 7.88444e-12 0.000981042
122 1 14.8761 4.9587 4.9587 0 0 0 1.99631e-12 3.03501e-13 0.00503545
124 1 18.1819 4.9587 4.9587 0 0 0 -1.91675e-12 -3.84614e-13 0.00503545
136 1 14.8761 8.2645 4.9587 0 0 0 -5.94789e-13 9.68317e-12 0.00503545
138 1 18.1819 8.2645 4.9587 0 0 0 2.15258e-12 -1.56614e-11 0.00503545
220 1 14.8761 4.9587 8.2645 0 0 0 -5.31122e-11 -1.31256e-12 -0.000981043
222 1 18.1819 4.9587 8.2645 0 0 0 6.98935e-12 -2.63562e-12 -0.000981042
234 1 14.8761 8.2645 8.2645 0 0 0 -9.80464e-12 2.70333e-11 -0.000981042
235 1 16.529 6.6116 6.6116 0 0 0 2.9448e-11 2.38837e-11 0.000981042
236 1 18.1819 8.2645 8.2645 0 0 0 6.40969e-13 -1.93241e-11 -0.000981042
126 1 21.4877 4.9587 4.9587 0 0 0 2.155e-12 9.83674e-13 0.00503545
140 1 21.4877 8.2645 4.9587 0 0 0 -6.42688e-13 9.90441e-12 0.00503545
224 1 21.4877 4.9587 8.2645 0 0 0 -3.0856e-11 -1.03951e-11 -0.000981043
237 1 19.8348 6.6116 6.6116 0 0 0 -2.80371e-11 2.49454e-11 0.000981042
238 1 21.4877 8.2645 8.2645 0 0 0 -4.71867e-12 3.43576e-11 -0.000981042
142 1 1.6529 11.5703 4.9587 0 0 0 8.43038e-16 1.09736e-15 0.00503545
239 1 1.45039e-19 9.9174 6.6116 0 0 0 9.25352e-12 -9.35977e-12 0.000981042
241 1 3.3058 9.9174 6.6116 0 0 0 -1.4161e-11 -2.10946e-11 0.000981042
240 1 1.6529 11.5703 8.2645 0 0 0 -3.68011e-12 1.50833e-11 -0.000981042
253 1 3.92937e-19 13.2232 6.6116 0 0 0 7.55534e-16 1.58689e-15 0.000981042
255 1 3.3058 13.2232 6.6116 0 0 0 -4.69341e-16 1.36958e-15 0.000981042
144 1 4.9587 11.5703 4.9587 0 0 0 -1.05738e-15 1.1219e-15 0.00503545
146 1 8.2645 11.5703 4.9587 0 0 0 7.16638e-16 8.29371e-16 0.00503545
243 1 6.6116 9.9174 6.6116 0 0 0 1.88778e-11 -2.34044e-11 0.000981042
242 1 4.9587 11.5703 8.2645 0 0 0 1.98061e-12 3.61236e-11 -0.000981042
244 1 8.2645 11.5703 8.2645 0 0 0 3.70241e-12 8.60278e-12 -0.000981042
257 1 6.6116 13.2232 6.6116 0 0 0 2.85019e-16 1.56503e-15 0.000981042
148 1 11.5703 11.5703 4.9587 0 0 0 2.41122e-16 7.61338e-16 0.00503545
245 1 9.9174 9.9174 6.6116 0 0 0 -1.26984e-13 1.3986e-11 0.000981042
247 1 13.2232 9.9174 6.6116 0 0 0 -1.51316e-11 -2.31586e-11 0.000981042
259 1 9.9174 13.2232 6.6116 0 0 0 -1.58538e-15 1.7181e-15 0.000981042
246 1 11.5703 11.5703 8.2645 0 0 0 -5.50136e-12 7.50619e-12 -0.000981042
261 1 13.2232 13.2232 6.6116 0 0 0 1.19885e-15 1.73033e-15 0.000981042
150 1 14.8761 11.5703 4.9587 0 0 0 -1.35696e-16 4.66959e-16 0.00503545
152 1 18.1819 11.5703 4.9587 0 0 0 9.28114e-16 4.81343e-16 0.00503545
249 1 16.529 9.9174 6.6116 0 0 0 8.68426e-12 -9.62286e-12 0.000981042
248 1 14.8761 11.5703 8.2645 0 0 0 4.09738e-12 2.98525e-11 -0.000981042
263 1 16.529 13.2232 6.6116 0 0 0 -1.18947e-15 2.16698e-15 0.000981042
250 1 18.1819 11.5703 8.2645 0 0 0 -4.36529e-12 1.38747e-11 -0.000981042
154 1 21.4877 11.5703 4.9587 0 0 0 -7.90313e-16 6.1993e-16 0.00503545
251 1 19.8348 9.9174 6.6116 0 0 0 -1.15827e-11 -1.9309e-11 0.000981042
252 1 21.4877 11.5703 8.2645 0 0 0 4.81706e-12 3.19982e-11 -0.000981042
265 1 19.8348 13.2232 6.6116 0 0 0 1.23209e-16 1.78496e-15 0.000981042
156 1 1.6529 14.8761 4.9587 0 0 0 1.38952e-15 -8.31892e-16 0.00503545
170 1 1.6529 18.1819 4.9587 0 0 0 6.34545e-16 1.53077e-15 0.00503545
254 1 1.6529 14.8761 8.2645 0 0 0 9.92147e-16 -2.28311e-16 -0.000981042
267 1 0 16.529 6.6116 0 0 0 -1.16327e-15 -1.32704e-15 0.000981042
269 1 3.3058 16.529 6.6116 0 0 0 7.12244e-17 -1.48907e-15 0.000981042
268 1 1.6529 18.1819 8.2645 0 0 0 1.29887e-15 7.80647e-16 -0.000981042
158 1 4.9587 14.8761 4.9587 0 0 0 -9.96245e-16 -7.38468e-16 0.00503545
160 1 8.2645 14.8761 4.9587 0 0 0 5.53423e-16 -9.31006e-17 0.00503545
172 1 4.9587 18.1819 4.9587 0 0 0 -6.54938e-16 1.19678e-15 0.00503545
174 1 8.2645 18.1819 4.9587 0 0 0 6.9386e-16 1.51937e-15 0.00503545
256 1 4.9587 14.8761 8.2645 0 0 0 -7.50081e-16 6.15121e-17 -0.000981042
258 1 8.2645 14.8761 8.2645 0 0 0 5.92966e-16 -5.95186e-16 -0.000981042
271 1 6.6116 16.529 6.6116 0 0 0 1.64544e-15 -9.58155e-16 0.000981042
270 1 4.9587 18.1819 8.2645 0 0 0 -7.12384e-16 1.00158e-15 -0.000981042
272 1 8.2645 18.1819 8.2645 0 0 0 4.09679e-16 4.93576e-16 -0.000981042
162 1 11.5703 14.8761 4.9587 0 0 0 2.71393e-16 -7.94383e-16 0.00503545
176 1 11.5703 18.1819 4.9587 0 0 0 7.41847e-17 7.74288e-16 0.00503545
273 1 9.9174 16.529 6.6116 0 0 0 -1.20018e-15 -1.58749e-15 0.000981042
260 1 11.5703 14.8761 8.2645 0 0 0 5.88642e-17 -1.29973e-16 -0.000981042
275 1 13.2232 16.529 6.6116 0 0 0 1.29186e-15 -9.85054e-16 0.000981042
274 1 11.5703 18.1819 8.2645 0 0 0 -2.81498e-16 1.19638e-15 -0.000981042
164 1 14.8761 14.8761 4.9587 0 0 0 -4.17449e-16 -3.47427e-16 0.00503545
166 1 18.1819 14.8761 4.9587 0 0 0 1.07149e-15 -7.82382e-16 0.00503545
178 1 14.8761 18.1819 4.9587 0 0 0 -2.85407e-16 1.82439e-15 0.00503545
180 1 18.1819 18.1819 4.9587 0 0 0 6.86414e-16 1.01518e-15 0.00503545
262 1 14.8761 14.8761 8.2645 0 0 0 8.0879e-17 -6.63138e-16 -0.000981042
277 1 16.529 16.529 6.6116 0 0 0 -7.43184e-16 -1.90032e-15 0.000981042
264 1 18.1819 14.8761 8.2645 0 0 0 1.11554e-16 -2.53795e-17 -0.000981042
276 1 14.8761 18.1819 8.2645 0 0 0 -2.19697e-16 5.23361e-16 -0.000981042
278 1 18.1819 18.1819 8.2645 0 0 0 8.16953e-16 8.21162e-16 -0.000981042
168 1 21.4877 14.8761 4.9587 0 0 0 -5.85335e-16 -6.21595e-16 0.00503545
182 1 21.4877 18.1819 4.9587 0 0 0 -3.81467e-16 1.58083e-15 0.00503545
266 1 21.4877 14.8761 8.2645 0 0 0 -1.80558e-16 -1.70314e-16 -0.000981042
279 1 19.8348 16.529 6.6116 0 0 0 -7.82913e-16 -1.01362e-15 0.000981042
280 1 21.4877 18.1819 8.2645 0 0 0 -5.99395e-17 1.04432e-15 -0.000981042
184 1 1.6529 21.4877 4.9587 0 0 0 4.72856e-16 -2.91714e-16 0.00503545
281 1 2.95998e-19 19.8348 6.6116 0 0 0 4.83956e-16 -4.52876e-16 0.000981042
282 1 1.6529 21.4877 8.2645 0 0 0 -3.55255e-12 -1.39954e-11 -0.000981042
283 1 3.3058 19.8348 6.6116 0 0 0 -4.25496e-18 3.49161e-16 0.000981042
186 1 4.9587 21.4877 4.9587 0 0 0 -3.01531e-16 -7.39983e-18 0.00503545
188 1 8.2645 21.4877 4.9587 0 0 0 -2.59458e-17 -3.76657e-16 0.00503545
284 1 4.9587 21.4877 8.2645 0 0 0 2.09699e-12 -3.59284e-11 -0.000981042
285 1 6.6116 19.8348 6.6116 0 0 0 -7.46527e-17 -5.08191e-16 0.000981042
286 1 8.2645 21.4877 8.2645 0 0 0 3.71507e-12 -8.39368e-12 -0.000981042
190 1 11.5703 21.4877 4.9587 0 0 0 3.73813e-16 -3.07097e-17 0.00503545
287 1 9.9174 19.8348 6.6116 0 0 0 -1.35653e-15 -6.73949e-16 0.000981042
288 1 11.5703 21.4877 8.2645 0 0 0 -5.52382e-12 -7.26691e-12 -0.000981042
289 1 13.2232 19.8348 6.6116 0 0 0 9.40601e-16 -2.91373e-16 0.000981042
192 1 14.8761 21.4877 4.9587 0 0 0 -7.10859e-17 -4.48806e-16 0.00503545
194 1 18.1819 21.4877 4.9587 0 0 0 9.06677e-16 -4.47118e-17 0.00503545
290 1 14.8761 21.4877 8.2645 0 0 0 3.98108e-12 -2.96219e-11 -0.000981042
291 1 16.529 19.8348 6.6116 0 0 0 -9.6876e-16 -6.4842e-16 0.000981042
292 1 18.1819 21.4877 8.2645 0 0 0 -4.48755e-12 -1.27586e-11 -0.000981042
196 1 21.4877 21.4877 4.9587 0 0 0 2.46788e-16 -4.27346e-17 0.00503545
293 1 19.8348 19.8348 6.6116 0 0 0 2.33283e-16 -3.71107e-16 0.000981042
294 1 21.4877 21.4877 8.2645 0 0 0 4.82129e-12 -3.10265e-11 -0.000981042
295 1 3.10797e-20 0 9.9174 0 0 0 4.21555e-11 2.21875e-11 -0.00503545
297 1 3.3058 0 9.9174 0 0 0 -3.74681e-11 3.36822e-11 -0.00503545
309 1 2.46048e-19 3.3058 9.9174 0 0 0 -1.52489e-10 1.29575e-10 -0.00503545
311 1 3.3058 3.3058 9.9174 0 0 0 1.46478e-10 1.63315e-10 -0.00503545
296 1 1.6529 1.6529 11.5703 0 0 0 1.12694e-11 -2.54478e-10 0.0291497
299 1 6.6116 0 9.9174 0 0 0 2.52132e-11 1.46513e-11 -0.00503545
313 1 6.6116 3.3058 9.9174 0 0 0 -1.83979e-10 1.97105e-10 -0.00503545
298 1 4.9587 1.6529 11.5703 0 0 0 -1.44422e-11 4.34969e-10 0.0291497
300 1 8.2645 1.6529 11.5703 0 0 0 1.49569e-10 -1.3545e-10 0.0291497
301 1 9.9174 1.08409e-19 9.9174 0 0 0 -1.30979e-12 2.65116e-11 -0.00503545
315 1 9.9174 3.3058 9.9174 0 0 0 -1.58912e-11 -5.02154e-11 -0.00503545
303 1 13.2232 0 9.9174 0 0 0 -2.18829e-11 1.582e-11 -0.00503545
317 1 13.2232 3.3058 9.9174 0 0 0 1.34501e-10 1.66772e-10 -0.00503545
302 1 11.5703 1.6529 11.5703 0 0 0 -1.04842e-10 -1.14917e-10 0.0291497
305 1 16.529 3.58897e-20 9.9174 0 0 0 3.6526e-11 2.44469e-11 -0.00503545
319 1 16.529 3.3058 9.9174 0 0 0 -1.44834e-10 1.17692e-10 -0.00503545
304 1 14.8761 1.6529 11.5703 0 0 0 -2.44031e-11 3.5763e-10 0.0291497
306 1 18.1819 1.6529 11.5703 0 0 0 3.32681e-11 -2.32813e-10 0.0291497
307 1 19.8348 0 9.9174 0 0 0 -3.74695e-11 2.75719e-11 -0.00503545
321 1 19.8348 3.3058 9.9174 0 0 0 1.2574e-10 1.45519e-10 -0.00503545
308 1 21.4877 1.6529 11.5703 0 0 0 -2.77946e-11 3.96597e-10 0.0291497
323 1 0 6.6116 9.9174 0 0 0 -1.54485e-10 -1.37846e-10 -0.00503545
325 1 3.3058 6.6116 9.9174 0 0 0 1.5109e-10 -1.64559e-10 -0.00503545
310 1 1.6529 4.9587 11.5703 0 0 0 1.1196e-10 -1.22364e-11 0.0291497
324 1 1.6529 8.2645 11.5703 0 0 0 7.20803e-12 2.80997e-10 0.0291497
327 1 6.6116 6.6116 9.9174 0 0 0 -1.85332e-10 -1.98798e-10 -0.00503545
312 1 4.9587 4.9587 11.5703 0 0 0 6.769e-11 3.54271e-12 0.0291497
314 1 8.2645 4.9587 11.5703 0 0 0 -4.6555e-10 -2.57876e-12 0.0291497
326 1 4.9587 8.2645 11.5703 0 0 0 -1.73872e-11 -4.26694e-10 0.0291497
328 1 8.2645 8.2645 11.5703 0 0 0 1.48456e-10 1.40303e-10 0.0291497
329 1 9.9174 6.6116 9.9174 0 0 0 -1.60449e-11 5.08933e-11 -0.00503545
331 1 13.2232 6.6116 9.9174 0 0 0 1.35923e-10 -1.68777e-10 -0.00503545
316 1 11.5703 4.9587 11.5703 0 0 0 4.51268e-10 -2.89143e-12 0.0291497
330 1 11.5703 8.2645 11.5703 0 0 0 -1.03444e-10 1.20525e-10 0.0291497
333 1 16.529 6.6116 9.9174 0 0 0 -1.49449e-10 -1.19231e-10 -0.00503545
318 1 14.8761 4.9587 11.5703 0 0 0 -2.97355e-11 4.00903e-12 0.0291497
320 1 18.1819 4.9587 11.5703 0 0 0 9.76865e-11 -1.25673e-11 0.0291497
332 1 14.8761 8.2645 11.5703 0 0 0 -2.14369e-11 -3.48128e-10 0.0291497
334 1 18.1819 8.2645 11.5703 0 0 0 3.7129e-11 2.6005e-10 0.0291497
335 1 19.8348 6.6116 9.9174 0 0 0 1.27826e-10 -1.53768e-10 -0.00503545
322 1 21.4877 4.9587 11.5703 0 0 0 1.78772e-11 1.38279e-11 0.0291497
336 1 21.4877 8.2645 11.5703 0 0 0 -2.79004e-11 -3.61441e-10 0.0291497
337 1 2.15338e-19 9.9174 9.9174 0 0 0 3.60473e-11 -3.09741e-11 -0.00503545
339 1 3.3058 9.9174 9.9174 0 0 0 -3.54189e-11 -3.51659e-11 -0.00503545
351 1 0 13.2232 9.9174 0 0 0 -1.03261e-11 -7.72648e-12 -0.00503545
353 1 3.3058 13.2232 9.9174 0 0 0 1.18833e-11 -7.71986e-12 -0.00503545
338 1 1.6529 11.5703 11.5703 0 0 0 -9.75988e-13 -5.42888e-12 0.0291497
341 1 6.6116 9.9174 9.9174 0 0 0 2.31921e-11 -1.77345e-11 -0.00503545
355 1 6.6116 13.2232 9.9174 0 0 0 -1.06458e-11 -1.01984e-11 -0.00503545
340 1 4.9587 11.5703 11.5703 0 0 0 -3.02904e-12 5.95847e-11 0.0291497
342 1 8.2645 11.5703 11.5703 0 0 0 -4.40455e-12 -7.35736e-12 0.0291497
343 1 9.9174 9.9174 9.9174 0 0 0 -1.32499e-12 -2.59511e-11 -0.00503545
345 1 13.2232 9.9174 9.9174 0 0 0 -1.9647e-11 -1.91863e-11 -0.00503545
357 1 9.9174 13.2232 9.9174 0 0 0 -2.68695e-13 5.09279e-12 -0.00503545
359 1 13.2232 13.2232 9.9174 0 0 0 9.34447e-12 -5.90481e-12 -0.00503545
344 1 11.5703 11.5703 11.5703 0 0 0 9.92109e-13 -2.16787e-12 0.0291497
347 1 16.529 9.9174 9.9174 0 0 0 3.42821e-11 -2.62294e-11 -0.00503545
361 1 16.529 13.2232 9.9174 0 0 0 -1.01662e-11 -7.21111e-12 -0.00503545
346 1 14.8761 11.5703 11.5703 0 0 0 3.96399e-12 4.49076e-11 0.0291497
348 1 18.1819 11.5703 11.5703 0 0 0 -2.68593e-12 -2.91393e-12 0.0291497
349 1 19.8348 9.9174 9.9174 0 0 0 -3.13661e-11 -3.63105e-11 -0.00503545
363 1 19.8348 13.2232 9.9174 0 0 0 1.04637e-11 -4.93763e-12 -0.00503545
350 1 21.4877 11.5703 11.5703 0 0 0 1.38106e-12 4.42992e-11 0.0291497
365 1 1.09519e-19 16.529 9.9174 0 0 0 3.32997e-17 -4.72823e-16 -0.00503545
367 1 3.3058 16.529 9.9174 0 0 0 2.76272e-16 1.33471e-16 -0.00503545
352 1 1.6529 14.8761 11.5703 0 0 0 -1.03507e-12 3.42844e-12 0.0291497
366 1 1.6529 18.1819 11.5703 0 0 0 -5.13545e-13 -5.58354e-12 0.0291497
369 1 6.6116 16.529 9.9174 0 0 0 -5.67413e-16 -7.60602e-16 -0.00503545
354 1 4.9587 14.8761 11.5703 0 0 0 1.2784e-13 -4.39195e-12 0.0291497
356 1 8.2645 14.8761 11.5703 0 0 0 8.10211e-13 2.23439e-12 0.0291497
368 1 4.9587 18.1819 11.5703 0 0 0 1.26587e-13 5.00381e-12 0.0291497
370 1 8.2645 18.1819 11.5703 0 0 0 1.00791e-12 -2.6988e-12 0.0291497
371 1 9.9174 16.529 9.9174 0 0 0 -6.12483e-16 -4.45821e-16 -0.00503545
373 1 13.2232 16.529 9.9174 0 0 0 3.83039e-16 -9.74605e-16 -0.00503545
358 1 11.5703 14.8761 11.5703 0 0 0 -1.18954e-12 2.54456e-12 0.0291497
372 1 11.5703 18.1819 11.5703 0 0 0 -1.41115e-12 -3.06578e-12 0.0291497
375 1 16.529 16.529 9.9174 0 0 0 -2.53322e-16 -7.37013e-16 -0.00503545
360 1 14.8761 14.8761 11.5703 0 0 0 3.75377e-13 -3.49179e-12 0.0291497
362 1 18.1819 14.8761 11.5703 0 0 0 -7.01945e-13 3.41646e-12 0.0291497
374 1 14.8761 18.1819 11.5703 0 0 0 3.75894e-13 4.17852e-12 0.0291497
376 1 18.1819 18.1819 11.5703 0 0 0 -1.19863e-12 -5.62815e-12 0.0291497
377 1 19.8348 16.529 9.9174 0 0 0 -2.94333e-16 -6.83566e-16 -0.00503545
364 1 21.4877 14.8761 11.5703 0 0 0 4.0607e-13 -2.90171e-12 0.0291497
378 1 21.4877 18.1819 11.5703 0 0 0 4.06294e-13 5.12846e-12 0.0291497
379 1 0 19.8348 9.9174 0 0 0 -1.17597e-11 6.67311e-12 -0.00503545
381 1 3.3058 19.8348 9.9174 0 0 0 1.29675e-11 6.55274e-12 -0.00503545
380 1 1.6529 21.4877 11.5703 0 0 0 -7.40735e-13 -8.91536e-13 0.0291497
383 1 6.6116 19.8348 9.9174 0 0 0 -1.09841e-11 9.98101e-12 -0.00503545
382 1 4.9587 21.4877 11.5703 0 0 0 -4.50674e-12 -5.89855e-11 0.0291497
384 1 8.2645 21.4877 11.5703 0 0 0 -3.85963e-12 6.27026e-12 0.0291497
385 1 9.9174 19.8348 9.9174 0 0 0 -2.93827e-13 -5.64591e-12 -0.00503545
387 1 13.2232 19.8348 9.9174 0 0 0 9.72335e-12 5.66066e-12 -0.00503545
386 1 11.5703 21.4877 11.5703 0 0 0 4.85455e-13 8.843e-13 0.0291497
389 1 16.529 19.8348 9.9174 0 0 0 -1.12917e-11 6.01859e-12 -0.00503545
388 1 14.8761 21.4877 11.5703 0 0 0 5.44291e-12 -4.4345e-11 0.0291497
390 1 18.1819 21.4877 11.5703 0 0 0 -2.91057e-12 -3.5737e-12 0.0291497
391 1 19.8348 19.8348 9.9174 0 0 0 1.19231e-11 3.85223e-12 -0.00503545
392 1 21.4877 21.4877 11.5703 0 0 0 1.33102e-12 -4.48432e-11 0.0291497
393 1 3.53717e-19 4.80996e-19 13.2232 0 0 0 2.95504e-11 7.48991e-11 0.0600204
394 1 1.6529 1.6529 14.8761 0 0 0 -3.86338e-11 1.49452e-11 -0.070469
395 1 3.3058 4.21796e-20 13.2232 0 0 0 -4.89347e-11 3.91287e-11 0.0600204
407 1 9.91592e-20 3.3058 13.2232 0 0 0 -7.75297e-10 7.72749e-10 0.0600204
409 1 3.3058 3.3058 13.2232 0 0 0 1.16746e-09 1.00513e-09 0.0600204
396 1 4.9587 1.6529 14.8761 0 0 0 2.82307e-11 7.0926e-10 -0.070469
397 1 6.6116 2.69358e-19 13.2232 0 0 0 -1.98372e-11 -2.87889e-11 0.0600204
398 1 8.2645 1.6529 14.8761 0 0 0 -4.45814e-11 3.60649e-12 -0.070469
411 1 6.6116 3.3058 13.2232 0 0 0 -9.69398e-10 9.54722e-10 0.0600204
399 1 9.9174 0 13.2232 0 0 0 -2.78806e-11 1.06026e-10 0.0600204
413 1 9.9174 3.3058 13.2232 0 0 0 1.17892e-10 4.1911e-11 0.0600204
400 1 11.5703 1.6529 14.8761 0 0 0 1.3141e-11 2.41393e-11 -0.070469
401 1 13.2232 0 13.2232 0 0 0 5.99516e-12 -3.30812e-11 0.0600204
415 1 13.2232 3.3058 13.2232 0 0 0 9.38401e-10 9.72495e-10 0.0600204
402 1 14.8761 1.6529 14.8761 0 0 0 1.21584e-11 5.6491e-10 -0.070469
403 1 16.529 2.11638e-19 13.2232 0 0 0 1.00064e-11 2.52925e-11 0.0600204
417 1 16.529 3.3058 13.2232 0 0 0 -6.2483e-10 7.18071e-10 0.0600204
404 1 18.1819 1.6529 14.8761 0 0 0 -4.47327e-11 2.22637e-11 -0.070469
405 1 19.8348 2.6723e-19 13.2232 0 0 0 -5.95528e-11 6.39379e-11 0.0600204
406 1 21.4877 1.6529 14.8761 0 0 0 2.89284e-11 5.72434e-10 -0.070469
419 1 19.8348 3.3058 13.2232 0 0 0 1.16528e-09 1.03229e-09 0.0600204
408 1 1.6529 4.9587 14.8761 0 0 0 5.83827e-12 1.69931e-11 -0.070469
421 1 1.68719e-19 6.6116 13.2232 0 0 0 -6.3239e-10 -6.38422e-10 0.0600204
422 1 1.6529 8.2645 14.8761 0 0 0 -2.8392e-11 -4.6708e-11 -0.070469
423 1 3.3058 6.6116 13.2232 0 0 0 1.11965e-09 -9.78669e-10 0.0600204
410 1 4.9587 4.9587 14.8761 0 0 0 5.08614e-06 2.0337e-06 -0.0703868
412 1 8.2645 4.9587 14.8761 0 0 0 -7.37865e-10 4.23291e-12 -0.070469
424 1 4.9587 8.2645 14.8761 0 0 0 2.30434e-11 -7.28095e-10 -0.070469
425 1 6.6116 6.6116 13.2232 0 0 0 -9.34853e-10 -9.1623e-10 0.0600204