LAMMPS data file via write_data, version 29 Oct 2020, timestep = 11

682 atoms
2 atom types
192 bonds
1 bond types
0 angles
1 angle types

0.0 23.1406 xlo xhi
0.0 23.1406 ylo yhi
0.0 50.0 zlo zhi

Masses

1 180.94788
2 15.999

Atoms # full

1 0 1 0.0 1.4933074409118106e-17 1.3072360061505158e-17 0.000986019068550891 0 0 0
2 0 1 0.0 1.6529 1.6529 1.652060352909034 0 0 0
3 0 1 0.0 3.3058 9.99948965830472e-18 0.0009860190685508858 0 0 0
15 0 1 0.0 5.674272282282195e-18 3.3058 0.0009860190685508255 0 0 0
17 0 1 0.0 3.3058 3.3058 0.0009860190685508142 0 0 0
99 0 1 0.0 4.582929457411516e-17 9.712325836224116e-18 3.305391984028093 0 0 0
101 0 1 0.0 3.3058 5.581472449254138e-18 3.305391984028093 0 0 0
113 0 1 0.0 7.964586318377627e-16 3.305799999999999 3.3053919840280854 0 0 0
115 0 1 0.0 3.305799999999999 3.305799999999999 3.305391984028084 0 0 0
4 0 1 0.0 4.9587 1.6529 1.652060352909034 0 0 0
5 0 1 0.0 6.6116 8.150291462585556e-18 0.0009860190685508758 0 0 0
6 0 1 0.0 8.2645 1.6529 1.652060352909034 0 0 0
19 0 1 0.0 6.6116 3.3058 0.000986019068550824 0 0 0
103 0 1 0.0 6.6116 0.0 3.305391984028093 0 0 0
117 0 1 0.0 6.611600000000001 3.305799999999999 3.305391984028084 0 0 0
7 0 1 0.0 9.9174 2.1413939911684105e-17 0.0009860190685509105 0 0 0
21 0 1 0.0 9.9174 3.3058 0.0009860190685508463 0 0 0
105 0 1 0.0 9.9174 9.319777620965033e-17 3.305391984028093 0 0 0
119 0 1 0.0 9.9174 3.3058 3.305391984028093 0 0 0
8 0 1 0.0 11.5703 1.6529 1.652060352909034 0 0 0
9 0 1 0.0 13.2232 7.556816453066204e-18 0.0009860190685508652 0 0 0
23 0 1 0.0 13.2232 3.3058 0.000986019068550822 0 0 0
107 0 1 0.0 13.2232 0.0 3.305391984028093 0 0 0
121 0 1 0.0 13.2232 3.305799999999999 3.3053919840280854 0 0 0
10 0 1 0.0 14.876100000000001 1.6529 1.652060352909034 0 0 0
11 0 1 0.0 16.529 1.1227219305595165e-17 0.0009860190685508814 0 0 0
25 0 1 0.0 16.529 3.3058 0.0009860190685508179 0 0 0
109 0 1 0.0 16.529 2.2673466339564234e-17 3.305391984028093 0 0 0
123 0 1 0.0 16.529 3.3057999999999996 3.3053919840280854 0 0 0
12 0 1 0.0 18.1819 1.6529 1.652060352909034 0 0 0
13 0 1 0.0 19.8348 1.090514954137719e-17 0.0009860190685508894 0 0 0
14 0 1 0.0 21.4877 1.6529 1.652060352909034 0 0 0
27 0 1 0.0 19.8348 3.3058 0.000986019068550822 0 0 0
111 0 1 0.0 19.8348 0.0 3.305391984028093 0 0 0
125 0 1 0.0 19.8348 3.305799999999999 3.3053919840280845 0 0 0
16 0 1 0.0 1.6529 4.9587 1.652060352909034 0 0 0
29 0 1 0.0 5.1740364881355515e-18 6.6116 0.0009860190685508372 0 0 0
30 0 1 0.0 1.6529 8.2645 1.652060352909034 0 0 0
31 0 1 0.0 3.3058 6.6116 0.0009860190685508261 0 0 0
127 0 1 0.0 7.474148042956158e-16 6.6116 3.3053919840280854 0 0 0
129 0 1 0.0 3.305799999999999 6.611600000000001 3.305391984028084 0 0 0
18 0 1 0.0 4.9587 4.9587 1.6520603529090343 0 0 0
20 0 1 0.0 8.2645 4.9587 1.652060352909034 0 0 0
32 0 1 0.0 4.9587 8.2645 1.652060352909034 0 0 0
33 0 1 0.0 6.6116 6.6116 0.000986019068550841 0 0 0
34 0 1 0.0 8.2645 8.2645 1.652060352909034 0 0 0
131 0 1 0.0 6.611600000000001 6.611600000000001 3.305391984028084 0 0 0
22 0 1 0.0 11.5703 4.9587 1.652060352909034 0 0 0
35 0 1 0.0 9.9174 6.6116 0.0009860190685508508 0 0 0
133 0 1 0.0 9.9174 6.6116 3.305391984028093 0 0 0
36 0 1 0.0 11.5703 8.2645 1.652060352909034 0 0 0
37 0 1 0.0 13.2232 6.6116 0.0009860190685508435 0 0 0
135 0 1 0.0 13.2232 6.611600000000001 3.3053919840280854 0 0 0
24 0 1 0.0 14.876100000000001 4.9587 1.6520603529090343 0 0 0
26 0 1 0.0 18.1819 4.9587 1.652060352909034 0 0 0
38 0 1 0.0 14.876100000000001 8.2645 1.652060352909034 0 0 0
39 0 1 0.0 16.529 6.6116 0.0009860190685508229 0 0 0
137 0 1 0.0 16.529 6.6116 3.3053919840280854 0 0 0
40 0 1 0.0 18.1819 8.2645 1.652060352909034 0 0 0
28 0 1 0.0 21.4877 4.9587 1.6520603529090343 0 0 0
41 0 1 0.0 19.8348 6.6116 0.0009860190685508459 0 0 0
42 0 1 0.0 21.4877 8.2645 1.652060352909034 0 0 0
139 0 1 0.0 19.8348 6.611600000000001 3.3053919840280854 0 0 0
43 0 1 0.0 1.4016962113826702e-17 9.9174 0.000986019068550892 0 0 0
45 0 1 0.0 3.3058 9.9174 0.000986019068550875 0 0 0
141 0 1 0.0 5.4709589906127684e-17 9.9174 3.305391984028093 0 0 0
143 0 1 0.0 3.3058 9.9174 3.305391984028093 0 0 0
44 0 1 0.0 1.6529 11.5703 1.6520603529090343 0 0 0
57 0 1 0.0 8.345649819560777e-18 13.2232 0.000986019068550865 0 0 0
59 0 1 0.0 3.3058 13.2232 0.0009860190685508608 0 0 0
155 0 1 0.0 0.0 13.2232 3.305391984028093 0 0 0
157 0 1 0.0 3.3058 13.2232 3.305391984028093 0 0 0
47 0 1 0.0 6.6116 9.9174 0.000986019068550857 0 0 0
145 0 1 0.0 6.6116 9.9174 3.305391984028093 0 0 0
46 0 1 0.0 4.9587 11.5703 1.652060352909034 0 0 0
48 0 1 0.0 8.2645 11.5703 1.652060352909034 0 0 0
61 0 1 0.0 6.6116 13.2232 0.000986019068550873 0 0 0
159 0 1 0.0 6.6116 13.2232 3.305391984028093 0 0 0
49 0 1 0.0 9.9174 9.9174 0.0009860190685509029 0 0 0
147 0 1 0.0 9.9174 9.9174 3.305391984028093 0 0 0
51 0 1 0.0 13.2232 9.9174 0.0009860190685508487 0 0 0
149 0 1 0.0 13.2232 9.9174 3.305391984028093 0 0 0
63 0 1 0.0 9.9174 13.2232 0.000986019068550857 0 0 0
161 0 1 0.0 9.9174 13.2232 3.305391984028093 0 0 0
50 0 1 0.0 11.5703 11.5703 1.652060352909034 0 0 0
65 0 1 0.0 13.2232 13.2232 0.0009860190685508706 0 0 0
163 0 1 0.0 13.2232 13.2232 3.305391984028093 0 0 0
53 0 1 0.0 16.529 9.9174 0.0009860190685508756 0 0 0
151 0 1 0.0 16.529 9.9174 3.305391984028093 0 0 0
52 0 1 0.0 14.876100000000001 11.5703 1.652060352909034 0 0 0
67 0 1 0.0 16.529 13.2232 0.0009860190685508534 0 0 0
165 0 1 0.0 16.529 13.2232 3.305391984028093 0 0 0
54 0 1 0.0 18.1819 11.5703 1.6520603529090343 0 0 0
55 0 1 0.0 19.8348 9.9174 0.000986019068550873 0 0 0
153 0 1 0.0 19.8348 9.9174 3.305391984028093 0 0 0
56 0 1 0.0 21.4877 11.5703 1.652060352909034 0 0 0
69 0 1 0.0 19.8348 13.2232 0.0009860190685508732 0 0 0
167 0 1 0.0 19.8348 13.2232 3.305391984028093 0 0 0
58 0 1 0.0 1.6529 14.876100000000001 1.652060352909034 0 0 0
71 0 1 0.0 2.6861774125161324e-18 16.529 0.0009860190685508675 0 0 0
73 0 1 0.0 3.3058 16.529 0.0009860190685508576 0 0 0
169 0 1 0.0 1.079983919712837e-17 16.529 3.305391984028093 0 0 0
171 0 1 0.0 3.3058 16.529 3.305391984028093 0 0 0
72 0 1 0.0 1.6529 18.1819 1.652060352909034 0 0 0
60 0 1 0.0 4.9587 14.876100000000001 1.652060352909034 0 0 0
62 0 1 0.0 8.2645 14.876100000000001 1.652060352909034 0 0 0
75 0 1 0.0 6.6116 16.529 0.000986019068550859 0 0 0
173 0 1 0.0 6.6116 16.529 3.305391984028093 0 0 0
74 0 1 0.0 4.9587 18.1819 1.652060352909034 0 0 0
76 0 1 0.0 8.2645 18.1819 1.652060352909034 0 0 0
77 0 1 0.0 9.9174 16.529 0.0009860190685508563 0 0 0
175 0 1 0.0 9.9174 16.529 3.305391984028093 0 0 0
64 0 1 0.0 11.5703 14.876100000000001 1.652060352909034 0 0 0
79 0 1 0.0 13.2232 16.529 0.0009860190685508534 0 0 0
177 0 1 0.0 13.2232 16.529 3.305391984028093 0 0 0
78 0 1 0.0 11.5703 18.1819 1.652060352909034 0 0 0
66 0 1 0.0 14.876100000000001 14.876100000000001 1.652060352909034 0 0 0
81 0 1 0.0 16.529 16.529 0.0009860190685508502 0 0 0
179 0 1 0.0 16.529 16.529 3.305391984028093 0 0 0
68 0 1 0.0 18.1819 14.876100000000001 1.652060352909034 0 0 0
80 0 1 0.0 14.876100000000001 18.1819 1.652060352909034 0 0 0
82 0 1 0.0 18.1819 18.1819 1.652060352909034 0 0 0
70 0 1 0.0 21.4877 14.876100000000001 1.652060352909034 0 0 0
83 0 1 0.0 19.8348 16.529 0.000986019068550859 0 0 0
181 0 1 0.0 19.8348 16.529 3.305391984028093 0 0 0
84 0 1 0.0 21.4877 18.1819 1.652060352909034 0 0 0
85 0 1 0.0 8.646087293078142e-18 19.8348 0.0009860190685508745 0 0 0
86 0 1 0.0 1.6529 21.4877 1.6520603529090343 0 0 0
87 0 1 0.0 3.3058 19.8348 0.0009860190685508701 0 0 0
183 0 1 0.0 0.0 19.8348 3.305391984028093 0 0 0
185 0 1 0.0 3.3058 19.8348 3.305391984028093 0 0 0
88 0 1 0.0 4.9587 21.4877 1.652060352909034 0 0 0
89 0 1 0.0 6.6116 19.8348 0.000986019068550878 0 0 0
90 0 1 0.0 8.2645 21.4877 1.652060352909034 0 0 0
187 0 1 0.0 6.6116 19.8348 3.305391984028093 0 0 0
91 0 1 0.0 9.9174 19.8348 0.0009860190685508671 0 0 0
189 0 1 0.0 9.9174 19.8348 3.305391984028093 0 0 0
92 0 1 0.0 11.5703 21.4877 1.652060352909034 0 0 0
93 0 1 0.0 13.2232 19.8348 0.0009860190685508678 0 0 0
191 0 1 0.0 13.2232 19.8348 3.305391984028093 0 0 0
94 0 1 0.0 14.876100000000001 21.4877 1.652060352909034 0 0 0
95 0 1 0.0 16.529 19.8348 0.000986019068550865 0 0 0
193 0 1 0.0 16.529 19.8348 3.305391984028093 0 0 0
96 0 1 0.0 18.1819 21.4877 1.6520603529090343 0 0 0
97 0 1 0.0 19.8348 19.8348 0.0009860190685508734 0 0 0
98 0 1 0.0 21.4877 21.4877 1.652060352909034 0 0 0
195 0 1 0.0 19.8348 19.8348 3.305391984028093 0 0 0
100 0 1 0.0 1.6529000000001939 1.6529000000013703 4.958770383699683 0 0 0
197 0 1 0.0 5.611612833063422e-13 7.602049965813924e-13 6.611613696857781 0 0 0
198 0 1 0.0 1.6529000000000948 1.6529000000014022 8.264486303144071 0 0 0
199 0 1 0.0 3.3057999999990555 1.5229554454009422e-12 6.6116136968578 0 0 0
211 0 1 0.0 2.5650579334565154e-12 3.3057999999978946 6.611613696858451 0 0 0
213 0 1 0.0 3.3057999999975953 3.3057999999979155 6.611613696857928 0 0 0
102 0 1 0.0 4.958699999999987 1.6528999999990936 4.9587703836926735 0 0 0
104 0 1 0.0 8.264499999999293 1.6529000000007281 4.95877038369748 0 0 0
200 0 1 0.0 4.958700000000488 1.6528999999975318 8.264486303143476 0 0 0
201 0 1 0.0 6.611600000001391 1.7792972924967244e-12 6.611613696858626 0 0 0
202 0 1 0.0 8.26449999999867 1.6529000000004184 8.264486303143267 0 0 0
215 0 1 0.0 6.611600000000794 3.305799999999177 6.611613696858442 0 0 0
106 0 1 0.0 11.570300000000671 1.652900000000648 4.958770383697189 0 0 0
217 0 1 0.0 9.917399999999766 3.3057999999975403 6.611613696858501 0 0 0
204 0 1 0.0 11.57030000000146 1.6529000000006808 8.264486303143247 0 0 0
205 0 1 0.0 13.223199999998902 1.7636798377985378e-12 6.611613696858512 0 0 0
219 0 1 0.0 13.223199999999354 3.305799999999406 6.611613696858193 0 0 0
108 0 1 0.0 14.876099999999964 1.6528999999992564 4.958770383693085 0 0 0
110 0 1 0.0 18.1819000000002 1.65290000000127 4.958770383699322 0 0 0
206 0 1 0.0 14.876099999999234 1.652899999997898 8.264486303143448 0 0 0
207 0 1 0.0 16.529000000000533 6.641026929742241e-13 6.611613696857747 0 0 0
221 0 1 0.0 16.52900000000243 3.3057999999982246 6.611613696858617 0 0 0
208 0 1 0.0 18.181900000000287 1.6529000000015315 8.264486303144029 0 0 0
112 0 1 0.0 21.487699999999958 1.652899999999204 4.958770383692942 0 0 0
209 0 1 0.0 19.83479999999926 1.5045561311731067e-12 6.611613696857861 0 0 0
210 0 1 0.0 21.48769999999966 1.6528999999976066 8.264486303143636 0 0 0
223 0 1 0.0 19.83479999999788 3.3057999999981305 6.611613696857781 0 0 0
114 0 1 0.0 1.652899999999795 4.958699999999976 4.9587703836908945 0 0 0
128 0 1 0.0 1.6529000000002207 8.26449999999871 4.958770383699513 0 0 0
212 0 1 0.0 1.6529000000001046 4.958699999999807 8.264486303144992 0 0 0
225 0 1 0.0 2.559221695039049e-12 6.611600000002116 6.611613696858709 0 0 0
226 0 1 0.0 1.6529000000003458 8.264499999998678 8.264486303143713 0 0 0
227 0 1 0.0 3.3057999999978183 6.6116000000021105 6.6116136968580985 0 0 0
116 0 1 0.0 4.958700000000054 4.958700000000018 4.958770383689806 0 0 0
118 0 1 0.0 8.26450000000089 4.958699999999995 4.958770383692752 0 0 0
130 0 1 0.0 4.958699999999987 8.264500000000897 4.958770383692716 0 0 0
132 0 1 0.0 8.264499999999304 8.264499999999298 4.958770383697441 0 0 0
214 0 1 0.0 4.958700000001762 4.958699999999932 8.264486303121512 0 0 0
216 0 1 0.0 8.264500000000119 4.958700000000011 8.264486303142457 0 0 0
228 0 1 0.0 4.958700000000469 8.2645000000024 8.264486303143432 0 0 0
229 0 1 0.0 6.6116000000008075 6.611600000000818 6.6116136968585035 0 0 0
230 0 1 0.0 8.264499999998776 8.26449999999956 8.264486303143167 0 0 0
120 0 1 0.0 11.57029999999921 4.958699999999995 4.9587703836929435 0 0 0
134 0 1 0.0 11.570300000000662 8.26449999999937 4.958770383697149 0 0 0
218 0 1 0.0 11.57030000000125 4.958700000000001 8.264486303142004 0 0 0
231 0 1 0.0 9.91739999999976 6.61160000000247 6.611613696858565 0 0 0
232 0 1 0.0 11.570300000001343 8.264499999999302 8.26448630314314 0 0 0
233 0 1 0.0 13.223199999999338 6.611600000000594 6.611613696858262 0 0 0
122 0 1 0.0 14.876100000000148 4.958700000000021 4.9587703836907515 0 0 0
124 0 1 0.0 18.18189999999984 4.958699999999975 4.9587703836911725 0 0 0
136 0 1 0.0 14.876099999999964 8.26450000000072 4.958770383693132 0 0 0
138 0 1 0.0 18.181900000000173 8.264499999998819 4.958770383699152 0 0 0
220 0 1 0.0 14.87609999999601 4.958699999999907 8.264486303124748 0 0 0
222 0 1 0.0 18.181900000000525 4.958699999999802 8.264486303144558 0 0 0
234 0 1 0.0 14.876099999999253 8.264500000002037 8.264486303143405 0 0 0
235 0 1 0.0 16.529000000002203 6.611600000001797 6.611613696858799 0 0 0
236 0 1 0.0 18.18190000000004 8.26449999999855 8.264486303143661 0 0 0
126 0 1 0.0 21.487700000000174 4.958700000000073 4.958770383690554 0 0 0
140 0 1 0.0 21.487699999999958 8.264500000000751 4.9587703836931025 0 0 0
224 0 1 0.0 21.487699999997673 4.958699999999219 8.264486303123448 0 0 0
237 0 1 0.0 19.83479999999789 6.611600000001875 6.611613696858041 0 0 0
238 0 1 0.0 21.48769999999966 8.264500000002588 8.264486303143684 0 0 0
142 0 1 0.0 1.6529 11.5703 4.958770383694944 0 0 0
239 0 1 0.0 6.973500865067715e-13 9.917399999999303 6.611613696857664 0 0 0
241 0 1 0.0 3.3057999999989334 9.917399999998413 6.611613696857868 0 0 0
240 0 1 0.0 1.6528999999997223 11.57030000000113 8.264486303141945 0 0 0
253 0 1 0.0 4.0741097375793897e-17 13.2232 6.611613696858735 0 0 0
255 0 1 0.0 3.3058 13.2232 6.611613696858735 0 0 0
144 0 1 0.0 4.9587 11.5703 4.958770383694943 0 0 0
146 0 1 0.0 8.2645 11.5703 4.958770383694943 0 0 0
243 0 1 0.0 6.611600000001418 9.917399999998247 6.611613696858589 0 0 0
242 0 1 0.0 4.958700000000147 11.570300000002707 8.264486303140437 0 0 0
244 0 1 0.0 8.264500000000279 11.57030000000065 8.26448630314163 0 0 0
257 0 1 0.0 6.6116 13.2232 6.611613696858735 0 0 0
148 0 1 0.0 11.5703 11.5703 4.958770383694943 0 0 0
245 0 1 0.0 9.917399999999992 9.917400000001052 6.61161369685696 0 0 0
247 0 1 0.0 13.223199999998855 9.917399999998263 6.611613696858466 0 0 0
259 0 1 0.0 9.9174 13.2232 6.611613696858735 0 0 0
246 0 1 0.0 11.570299999999586 11.570300000000563 8.264486303141643 0 0 0
261 0 1 0.0 13.2232 13.2232 6.611613696858735 0 0 0
150 0 1 0.0 14.876100000000001 11.5703 4.958770383694943 0 0 0
152 0 1 0.0 18.1819 11.5703 4.958770383694944 0 0 0
249 0 1 0.0 16.52900000000064 9.917399999999285 6.61161369685781 0 0 0
248 0 1 0.0 14.876100000000303 11.570300000002245 8.264486303140572 0 0 0
263 0 1 0.0 16.529 13.2232 6.611613696858735 0 0 0
250 0 1 0.0 18.18189999999968 11.57030000000105 8.264486303141918 0 0 0
154 0 1 0.0 21.4877 11.5703 4.958770383694943 0 0 0
251 0 1 0.0 19.834799999999138 9.917399999998548 6.611613696857747 0 0 0
252 0 1 0.0 21.48770000000035 11.570300000002403 8.264486303140567 0 0 0
265 0 1 0.0 19.8348 13.2232 6.611613696858735 0 0 0
156 0 1 0.0 1.6529 14.876100000000001 4.958770383694943 0 0 0
170 0 1 0.0 1.6529 18.1819 4.958770383694943 0 0 0
254 0 1 0.0 1.6529 14.876100000000001 8.264486303141267 0 0 0
267 0 1 0.0 0.0 16.529 6.611613696858735 0 0 0
269 0 1 0.0 3.3058 16.529 6.611613696858735 0 0 0
268 0 1 0.0 1.6529 18.1819 8.264486303141267 0 0 0
158 0 1 0.0 4.9587 14.876100000000001 4.958770383694943 0 0 0
160 0 1 0.0 8.2645 14.876100000000001 4.958770383694943 0 0 0
172 0 1 0.0 4.9587 18.1819 4.958770383694943 0 0 0
174 0 1 0.0 8.2645 18.1819 4.958770383694943 0 0 0
256 0 1 0.0 4.9587 14.876100000000001 8.264486303141267 0 0 0
258 0 1 0.0 8.2645 14.876100000000001 8.264486303141267 0 0 0
271 0 1 0.0 6.6116 16.529 6.611613696858735 0 0 0
270 0 1 0.0 4.9587 18.1819 8.264486303141267 0 0 0
272 0 1 0.0 8.2645 18.1819 8.264486303141267 0 0 0
162 0 1 0.0 11.5703 14.876100000000001 4.958770383694943 0 0 0
176 0 1 0.0 11.5703 18.1819 4.958770383694943 0 0 0
273 0 1 0.0 9.9174 16.529 6.611613696858735 0 0 0
260 0 1 0.0 11.5703 14.876100000000001 8.264486303141267 0 0 0
275 0 1 0.0 13.2232 16.529 6.611613696858735 0 0 0
274 0 1 0.0 11.5703 18.1819 8.264486303141267 0 0 0
164 0 1 0.0 14.876100000000001 14.876100000000001 4.958770383694943 0 0 0
166 0 1 0.0 18.1819 14.876100000000001 4.958770383694943 0 0 0
178 0 1 0.0 14.876100000000001 18.1819 4.958770383694943 0 0 0
180 0 1 0.0 18.1819 18.1819 4.958770383694943 0 0 0
262 0 1 0.0 14.876100000000001 14.876100000000001 8.264486303141267 0 0 0
277 0 1 0.0 16.529 16.529 6.611613696858735 0 0 0
264 0 1 0.0 18.1819 14.876100000000001 8.264486303141267 0 0 0
276 0 1 0.0 14.876100000000001 18.1819 8.264486303141267 0 0 0
278 0 1 0.0 18.1819 18.1819 8.264486303141267 0 0 0
168 0 1 0.0 21.4877 14.876100000000001 4.958770383694943 0 0 0
182 0 1 0.0 21.4877 18.1819 4.958770383694943 0 0 0
266 0 1 0.0 21.4877 14.876100000000001 8.264486303141265 0 0 0
279 0 1 0.0 19.8348 16.529 6.611613696858735 0 0 0
280 0 1 0.0 21.4877 18.1819 8.264486303141265 0 0 0
184 0 1 0.0 1.6529 21.4877 4.958770383694944 0 0 0
281 0 1 0.0 2.9504291873232214e-17 19.8348 6.611613696858735 0 0 0
282 0 1 0.0 1.6528999999997331 21.48769999999894 8.264486303142142 0 0 0
283 0 1 0.0 3.3058 19.8348 6.611613696858735 0 0 0
186 0 1 0.0 4.9587 21.4877 4.958770383694943 0 0 0
188 0 1 0.0 8.2645 21.4877 4.958770383694943 0 0 0
284 0 1 0.0 4.958700000000154 21.487699999997304 8.26448630314039 0 0 0
285 0 1 0.0 6.6116 19.8348 6.611613696858735 0 0 0
286 0 1 0.0 8.26450000000028 21.487699999999382 8.264486303141672 0 0 0
203 0 1 0.0 9.91739999999999 23.1405999999989 6.611613696856896 0 -1 0
190 0 1 0.0 11.5703 21.4877 4.958770383694943 0 0 0
287 0 1 0.0 9.9174 19.8348 6.611613696858735 0 0 0
288 0 1 0.0 11.570299999999584 21.487699999999453 8.264486303141686 0 0 0
289 0 1 0.0 13.2232 19.8348 6.611613696858735 0 0 0
192 0 1 0.0 14.876100000000001 21.4877 4.958770383694943 0 0 0
194 0 1 0.0 18.1819 21.4877 4.958770383694944 0 0 0
290 0 1 0.0 14.876100000000296 21.487699999997787 8.264486303140522 0 0 0
291 0 1 0.0 16.529 19.8348 6.611613696858735 0 0 0
292 0 1 0.0 18.181899999999672 21.48769999999902 8.264486303142117 0 0 0
196 0 1 0.0 21.4877 21.4877 4.958770383694943 0 0 0
293 0 1 0.0 19.8348 19.8348 6.611613696858735 0 0 0
294 0 1 0.0 21.48770000000035 21.48769999999766 8.264486303140428 0 0 0
295 0 1 0.0 3.1453028071300605e-12 1.6912659661605087e-12 9.917329616305414 0 0 0
297 0 1 0.0 3.3057999999972076 2.5639109362221092e-12 9.91732961630662 0 0 0
311 0 1 0.0 3.305800000011016 3.305800000012319 9.917329616331006 0 0 0
296 0 1 0.0 1.6529000000008502 1.6528999999809788 11.570708015977736 0 0 0
299 0 1 0.0 6.61160000000188 1.1423074782570547e-12 9.917329616304695 0 0 0
313 0 1 0.0 6.611599999986137 3.305800000014843 9.917329616328443 0 0 0
298 0 1 0.0 4.958699999998921 1.652900000032663 11.570708016005872 0 0 0
300 0 1 0.0 8.264500000011173 1.6528999999898704 11.570708015974175 0 0 0
301 0 1 0.0 9.9173999999999 1.9706835190976078e-12 9.91732961630744 0 0 0
315 0 1 0.0 9.917399999998807 3.3057999999962484 9.917329616304924 0 0 0
303 0 1 0.0 13.223199999998371 1.2258804969245557e-12 9.91732961630523 0 0 0
317 0 1 0.0 13.22320000001014 3.305800000012562 9.917329616326443 0 0 0
302 0 1 0.0 11.570299999992171 1.6528999999914027 11.57070801597413 0 0 0
305 0 1 0.0 16.529000000002714 1.8579705993286464e-12 9.917329616305521 0 0 0
319 0 1 0.0 16.528999999989118 3.3058000000088823 9.917329616321975 0 0 0
304 0 1 0.0 14.876099999998152 1.6529000000268528 11.570708015998592 0 0 0
306 0 1 0.0 18.181900000002482 1.652899999982598 11.570708015977088 0 0 0
309 0 1 0.0 23.14059999998855 3.305800000009774 9.917329616324286 -1 0 0
307 0 1 0.0 19.834799999997188 2.103978288710308e-12 9.917329616306363 0 0 0
321 0 1 0.0 19.834800000009434 3.3058000000109744 9.917329616329399 0 0 0
308 0 1 0.0 21.487699999997897 1.652900000029771 11.570708016000887 0 0 0
325 0 1 0.0 3.305800000011362 6.6115999999875905 9.917329616330033 0 0 0
310 0 1 0.0 1.6529000000084006 4.958699999999076 11.57070801603392 0 0 0
324 0 1 0.0 1.652900000000544 8.264500000021007 11.57070801597775 0 0 0
327 0 1 0.0 6.611599999986032 6.611599999985028 9.917329616328097 0 0 0
312 0 1 0.0 4.958700000005069 4.958700000000267 11.570708015881971 0 0 0
314 0 1 0.0 8.264499999965047 4.958699999999805 11.570708016003987 0 0 0
326 0 1 0.0 4.958699999998694 8.264499999967962 11.570708016005792 0 0 0
328 0 1 0.0 8.2645000000111 8.264500000010493 11.570708015974244 0 0 0
329 0 1 0.0 9.917399999998796 6.611600000003801 9.91732961630463 0 0 0
331 0 1 0.0 13.223200000010248 6.6115999999872885 9.917329616326038 0 0 0
316 0 1 0.0 11.57030000003387 4.9586999999997845 11.570708015999486 0 0 0
330 0 1 0.0 11.57029999999228 8.264500000009019 11.570708015974198 0 0 0
333 0 1 0.0 16.528999999988777 6.611599999991004 9.917329616320943 0 0 0
318 0 1 0.0 14.876099999997782 4.958700000000307 11.570708015897566 0 0 0
320 0 1 0.0 18.181900000007307 4.9586999999990535 11.570708016028647 0 0 0
332 0 1 0.0 14.876099999998381 8.264499999973859 11.570708015998484 0 0 0
334 0 1 0.0 18.18190000000277 8.264500000019439 11.570708015977104 0 0 0
323 0 1 0.0 23.1405999999884 6.611599999989603 9.917329616322457 -1 0 0
335 0 1 0.0 19.834800000009604 6.611599999988404 9.917329616327546 0 0 0
322 0 1 0.0 21.48770000000135 4.958700000001045 11.570708015893349 0 0 0
336 0 1 0.0 21.48769999999789 8.264499999972871 11.57070801600002 0 0 0
337 0 1 0.0 2.6884275747226238e-12 9.917399999997663 9.917329616306565 0 0 0
339 0 1 0.0 3.305799999997357 9.917399999997324 9.917329616307084 0 0 0
353 0 1 0.0 3.305800000000891 13.22319999999943 9.91732961630518 0 0 0
338 0 1 0.0 1.652899999999926 11.570299999999605 11.570708015971666 0 0 0
341 0 1 0.0 6.611600000001732 9.917399999998628 9.917329616305048 0 0 0
355 0 1 0.0 6.611599999999203 13.223199999999233 9.917329616305315 0 0 0
340 0 1 0.0 4.9586999999997765 11.570300000004467 11.570708015970101 0 0 0
342 0 1 0.0 8.264499999999686 11.570299999999456 11.570708015971089 0 0 0
343 0 1 0.0 9.917399999999898 9.917399999998064 9.917329616307534 0 0 0
345 0 1 0.0 13.223199999998535 9.91739999999852 9.917329616305622 0 0 0
357 0 1 0.0 9.917399999999983 13.223200000000384 9.917329616304754 0 0 0
359 0 1 0.0 13.223200000000697 13.223199999999565 9.917329616305144 0 0 0
344 0 1 0.0 11.570300000000076 11.570299999999845 11.570708015970832 0 0 0
347 0 1 0.0 16.52900000000257 9.917399999998006 9.917329616306024 0 0 0
361 0 1 0.0 16.528999999999233 13.223199999999462 9.91732961630519 0 0 0
346 0 1 0.0 14.876100000000294 11.570300000003355 11.57070801597028 0 0 0
348 0 1 0.0 18.181899999999786 11.570299999999785 11.570708015971592 0 0 0
351 0 1 0.0 23.140599999999225 13.223199999999428 9.917329616305233 -1 0 0
349 0 1 0.0 19.834799999997657 9.917399999997256 9.91732961630752 0 0 0
363 0 1 0.0 19.834800000000786 13.223199999999627 9.9173296163051 0 0 0
350 0 1 0.0 21.487700000000093 11.570300000003314 11.570708015969759 0 0 0
365 0 1 0.0 0.0 16.529 9.917329616305057 0 0 0
367 0 1 0.0 3.3058 16.529 9.917329616305057 0 0 0
352 0 1 0.0 1.6528999999999214 14.876100000000259 11.57070801597174 0 0 0
366 0 1 0.0 1.652899999999962 18.181899999999562 11.5707080159717 0 0 0
369 0 1 0.0 6.6116 16.529 9.917329616305057 0 0 0
354 0 1 0.0 4.958700000000008 14.876099999999681 11.570708015972032 0 0 0
356 0 1 0.0 8.264500000000053 14.876100000000164 11.570708015971809 0 0 0
368 0 1 0.0 4.958700000000008 18.181900000000358 11.570708015972054 0 0 0
370 0 1 0.0 8.264500000000082 18.181899999999786 11.5707080159718 0 0 0
371 0 1 0.0 9.9174 16.529 9.917329616305057 0 0 0
373 0 1 0.0 13.2232 16.529 9.917329616305057 0 0 0
358 0 1 0.0 11.570299999999904 14.876100000000186 11.57070801597181 0 0 0
372 0 1 0.0 11.570299999999891 18.181899999999764 11.570708015971803 0 0 0
375 0 1 0.0 16.529 16.529 9.917329616305057 0 0 0
360 0 1 0.0 14.876100000000026 14.87609999999974 11.570708015972006 0 0 0
362 0 1 0.0 18.181899999999953 14.876100000000259 11.570708015971752 0 0 0
374 0 1 0.0 14.876100000000026 18.181900000000304 11.57070801597203 0 0 0
376 0 1 0.0 18.18189999999992 18.181899999999562 11.57070801597171 0 0 0
377 0 1 0.0 19.8348 16.529 9.917329616305057 0 0 0
364 0 1 0.0 21.48770000000003 14.876099999999777 11.57070801597199 0 0 0
378 0 1 0.0 21.48770000000003 18.18190000000037 11.57070801597206 0 0 0
381 0 1 0.0 3.30580000000097 19.834800000000495 9.917329616305087 0 0 0
380 0 1 0.0 1.6528999999999443 21.48769999999993 11.570708015971027 0 0 0
383 0 1 0.0 6.61159999999918 19.834800000000754 9.917329616305281 0 0 0
382 0 1 0.0 4.958699999999663 21.487699999995574 11.570708015969975 0 0 0
384 0 1 0.0 8.26449999999972 21.487700000000473 11.57070801597094 0 0 0
385 0 1 0.0 9.917399999999981 19.834799999999564 9.917329616304722 0 0 0
387 0 1 0.0 13.22320000000072 19.83480000000044 9.917329616305103 0 0 0
386 0 1 0.0 11.570300000000026 21.487700000000054 11.570708015970668 0 0 0
389 0 1 0.0 16.52899999999916 19.834800000000463 9.917329616305098 0 0 0
388 0 1 0.0 14.876100000000408 21.4876999999967 11.570708015970142 0 0 0
390 0 1 0.0 18.181899999999775 21.487699999999723 11.570708015970935 0 0 0
379 0 1 0.0 23.140599999999118 19.834800000000502 9.917329616305098 -1 0 0
391 0 1 0.0 19.834800000000882 19.834800000000286 9.91732961630496 0 0 0
392 0 1 0.0 21.487700000000086 21.487699999996632 11.570708015969396 0 0 0
393 0 1 0.0 2.213269152901634e-12 5.683633663830451e-12 13.224039647084503 0 0 0
394 0 1 0.0 1.6528999999971123 1.652900000001149 14.87511398091993 0 0 0
395 0 1 0.0 3.3057999999963337 2.993761703125835e-12 13.22403964708184 0 0 0
409 0 1 0.0 3.3058000000877485 3.305800000075611 13.224039647187528 0 0 0
396 0 1 0.0 4.958700000002132 1.6529000000530714 14.875113980962562 0 0 0
398 0 1 0.0 8.264499999996643 1.6529000000002816 14.875113980925747 0 0 0
411 0 1 0.0 6.611599999927118 3.305800000071799 13.224039647194664 0 0 0
399 0 1 0.0 9.917399999997905 7.998534644270796e-12 13.2240396470902 0 0 0
413 0 1 0.0 9.917400000008824 3.305800000003187 13.224039647076854 0 0 0
400 0 1 0.0 11.570300000000996 1.6529000000018124 14.875113980926203 0 0 0
415 0 1 0.0 13.223200000070609 3.3058000000731456 13.224039647187995 0 0 0
402 0 1 0.0 14.876100000000939 1.652900000042269 14.875113980956916 0 0 0
403 0 1 0.0 16.529000000000757 1.962142194459063e-12 13.224039647083123 0 0 0
417 0 1 0.0 16.52899999995306 3.305800000054018 13.224039647166126 0 0 0
404 0 1 0.0 18.181899999996638 1.6529000000016907 14.875113980920792 0 0 0
407 0 1 0.0 23.140599999941777 3.305800000058143 13.224039647167885 -1 0 0
405 0 1 0.0 19.834799999995532 4.8411095586097776e-12 13.224039647085455 0 0 0
406 0 1 0.0 21.487700000002196 1.6529000000428413 14.875113980954707 0 0 0
419 0 1 0.0 19.83480000008762 3.305800000077674 13.224039647183341 0 0 0
408 0 1 0.0 1.652900000000482 4.958700000001293 14.875113980998718 0 0 0
422 0 1 0.0 1.6528999999978762 8.26449999999648 14.87511398092032 0 0 0
423 0 1 0.0 3.305800000084146 6.611599999926384 13.224039647184636 0 0 0
410 0 1 0.0 4.958700070880558 4.958700028333476 14.875115126244921 0 0 0
412 0 1 0.0 8.264499999944803 4.958700000000323 14.875113980966608 0 0 0
424 0 1 0.0 4.958700000001741 8.264499999945526 14.875113980965137 0 0 0
425 0 1 0.0 6.6115999999297115 6.611599999931103 13.224039647192111 0 0 0
426 0 1 0.0 8.26449999999705 8.264499999999183 14.875113980925807 0 0 0
414 0 1 0.0 11.570300000043064 4.958700000000349 14.875113980946447 0 0 0
427 0 1 0.0 9.91740000000886 6.611599999996314 13.224039647076664 0 0 0
428 0 1 0.0 11.57030000000057 8.264499999997591 14.875113980926283 0 0 0
429 0 1 0.0 13.223200000067663 6.61159999993011 13.224039647185126 0 0 0
416 0 1 0.0 14.8761002090675 4.958700031797865 14.875114915520985 0 0 0
418 0 1 0.0 18.181899999992112 4.958700000001331 14.875113980984597 0 0 0
430 0 1 0.0 14.87610000000133 8.264499999956163 14.875113980959815 0 0 0
431 0 1 0.0 16.52899999995703 6.611599999948333 13.224039647162922 0 0 0
432 0 1 0.0 18.181899999995935 8.264499999995868 14.875113980921185 0 0 0
421 0 1 0.0 23.14059999995253 6.611599999951993 13.224039647158458 -1 0 0
420 0 1 0.0 21.487700225753297 4.958700103134779 14.875114959485712 0 0 0
433 0 1 0.0 19.834800000076836 6.611599999932441 13.224039647173901 0 0 0
434 0 1 0.0 21.487700000002185 8.264499999952225 14.875113980964334 0 0 0
435 0 1 0.0 5.439251958218675e-12 9.917400000000235 13.224039647079689 0 0 0
437 0 1 0.0 3.3057999999943966 9.917399999997837 13.224039647080579 0 0 0
436 0 1 0.0 1.6528999999997134 11.570300000001843 14.87511398093179 0 0 0
451 0 1 0.0 3.3058000000007297 13.223200000000972 13.224039647091141 0 0 0
439 0 1 0.0 6.611599999999372 9.917400000003854 13.224039647080811 0 0 0
438 0 1 0.0 4.958700000000574 11.570300000003607 14.875113980931355 0 0 0
440 0 1 0.0 8.264500000000377 11.570300000001305 14.875113980932975 0 0 0
453 0 1 0.0 6.611599999999609 13.223199999999649 13.224039647091162 0 0 0
441 0 1 0.0 9.917399999997954 9.917399999991511 13.224039647090231 0 0 0
443 0 1 0.0 13.223199999999482 9.917400000004397 13.22403964708301 0 0 0
455 0 1 0.0 9.917400000000114 13.22320000000165 13.224039647091356 0 0 0
442 0 1 0.0 11.570299999999996 11.570300000001646 14.875113980933241 0 0 0
457 0 1 0.0 13.223200000000379 13.223200000000324 13.22403964709112 0 0 0
445 0 1 0.0 16.52900000000277 9.917399999999086 13.224039647081701 0 0 0
444 0 1 0.0 14.876100000000221 11.57030000000318 14.8751139809317 0 0 0
459 0 1 0.0 16.528999999999492 13.223199999999991 13.224039647091404 0 0 0
446 0 1 0.0 18.181900000000002 11.570300000001968 14.875113980931806 0 0 0
449 0 1 0.0 23.140599999999417 13.223199999999892 13.224039647091436 -1 0 0
447 0 1 0.0 19.834799999992274 9.91740000000105 13.224039647080646 0 0 0
448 0 1 0.0 21.487700000000494 11.570300000004487 14.87511398093285 0 0 0
461 0 1 0.0 19.834800000000698 13.223200000001013 13.224039647091208 0 0 0
450 0 1 0.0 1.65289999999999 14.876099999999767 14.875113980931477 0 0 0
463 0 1 0.0 1.3956134626289287e-16 16.529 13.224039647090965 0 0 0
465 0 1 0.0 3.3058 16.529 13.224039647090965 0 0 0
464 0 1 0.0 1.6528999999999934 18.181900000000276 14.875113980931447 0 0 0
452 0 1 0.0 4.958700000000004 14.87609999999963 14.875113980931289 0 0 0