LAMMPS data file via write_data, version 29 Oct 2020, timestep = 10

580 atoms
2 atom types
45 bonds
1 bond types
0 angles
1 angle types

0.0 23.1406 xlo xhi
0.0 23.1406 ylo yhi
0.0 50.0 zlo zhi

Masses

1 180.94788
2 15.999

Bond Coeffs # harmonic

1 530 1.211

Atoms # full

1 0 1 0.0 2.149690167759226e-14 1.3865906632414661e-14 0.00424910415931379 0 0 0
2 0 1 0.0 1.652900000000004 1.6529000000000056 1.6492875714493809 0 0 0
3 0 1 0.0 3.305800000000005 2.1070496236126337e-14 0.004249104159288952 0 0 0
4 0 1 0.0 4.958700000000018 1.6529000000000074 1.6492875714493562 0 0 0
15 0 1 0.0 2.729690900556115e-14 3.3058000000000125 0.004249104159290823 0 0 0
16 0 1 0.0 1.6529000000000276 4.958700000000023 1.6492875714492965 0 0 0
17 0 1 0.0 3.305800000000002 3.30580000000001 0.0042491041593218605 0 0 0
18 0 1 0.0 4.958699999999984 4.9587000000000305 1.649287571449196 0 0 0
99 0 1 0.0 23.140599999999978 23.14059999999992 3.3040366607991603 -1 -1 0
100 0 1 0.0 1.6528999999779201 1.6529000000008622 4.959000804583946 0 0 0
101 0 1 0.0 3.305799999999948 23.140599999999992 3.304036660799544 0 -1 0
102 0 1 0.0 4.958700000000969 1.652900000015402 4.959000804583568 0 0 0
113 0 1 0.0 7.227065939167283e-14 3.305800000000032 3.304036660799492 0 0 0
114 0 1 0.0 1.6529000000368572 4.958699999974047 4.959000804873031 0 0 0
115 0 1 0.0 3.305799999999978 3.3058000000000827 3.3040366608000795 0 0 0
116 0 1 0.0 4.958699999998316 4.958699999989419 4.959000805070362 0 0 0
5 0 1 0.0 6.611599999999981 2.2859574878965927e-14 0.004249104159298068 0 0 0
19 0 1 0.0 6.611599999999977 3.3058000000000125 0.004249104159306525 0 0 0
103 0 1 0.0 6.611599999999929 23.14059999999986 3.3040366607984657 0 -1 0
117 0 1 0.0 6.611599999999871 3.3058000000001844 3.3040366607990173 0 0 0
29 0 1 0.0 3.199393096617813e-14 6.611599999999977 0.0042491041593314014 0 0 0
31 0 1 0.0 3.3058000000000147 6.61159999999997 0.004249104159354563 0 0 0
127 0 1 0.0 1.1020203574285466e-16 6.6115999999998945 3.304036660799117 0 0 0
129 0 1 0.0 3.305800000000075 6.611599999999817 3.3040366607998575 0 0 0
33 0 1 0.0 6.6115999999999655 6.611599999999983 0.0042491041593428185 0 0 0
131 0 1 0.0 6.611599999999886 6.6115999999999815 3.3040366607992917 0 0 0
6 0 1 0.0 8.264499999999998 1.6528999999999443 1.6492875714495328 0 0 0
7 0 1 0.0 9.917400000000036 2.5132040616934983e-14 0.0042491041592962 0 0 0
20 0 1 0.0 8.264499999999988 4.958700000000045 1.6492875714494046 0 0 0
21 0 1 0.0 9.917400000000047 3.3058000000000063 0.004249104159326212 0 0 0
104 0 1 0.0 8.264500000048908 1.6528999999879161 4.95900080424578 0 0 0
105 0 1 0.0 9.917400000000276 5.3114286495579055e-14 3.304036660799614 0 0 0
118 0 1 0.0 8.264499999960792 4.95870000006651 4.959000804366351 0 0 0
119 0 1 0.0 9.917400000000315 3.305800000000007 3.3040366608000733 0 0 0
8 0 1 0.0 11.570300000000007 1.6529000000000569 1.6492875714491795 0 0 0
9 0 1 0.0 13.22319999999995 1.8623723577949664e-14 0.004249104159326254 0 0 0
10 0 1 0.0 14.876100000000008 1.6528999999999257 1.6492875714496524 0 0 0
22 0 1 0.0 11.570299999999998 4.958700000000013 1.6492875714491826 0 0 0
23 0 1 0.0 13.223199999999938 3.3058000000000103 0.004249104159321395 0 0 0
24 0 1 0.0 14.876099999999989 4.958700000000047 1.6492875714496162 0 0 0
106 0 1 0.0 11.570300000009857 1.6529000000277896 4.959000805084044 0 0 0
107 0 1 0.0 13.223199999999826 4.969638537416353e-14 3.304036660799711 0 0 0
108 0 1 0.0 14.876099999955684 1.6528999999826457 4.9590008041650355 0 0 0
120 0 1 0.0 11.57029999997082 4.958699999913599 4.959000805377325 0 0 0
121 0 1 0.0 13.223199999999704 3.3057999999999335 3.3040366608000675 0 0 0
122 0 1 0.0 14.876099999993327 4.958700000049547 4.959000804072072 0 0 0
35 0 1 0.0 9.917400000000047 6.611599999999972 0.004249104159351323 0 0 0
133 0 1 0.0 9.91740000000011 6.611599999999883 3.304036660799586 0 0 0
37 0 1 0.0 13.223199999999927 6.611599999999975 0.004249104159348709 0 0 0
135 0 1 0.0 13.223199999999858 6.611599999999862 3.304036660799279 0 0 0
11 0 1 0.0 16.529000000000043 2.2044745238470655e-14 0.004249104159352816 0 0 0
25 0 1 0.0 16.52900000000005 3.305800000000008 0.004249104159363817 0 0 0
109 0 1 0.0 16.529000000000288 23.140599999999996 3.304036660800074 0 -1 0
123 0 1 0.0 16.529000000000323 3.305800000000029 3.3040366608003864 0 0 0
12 0 1 0.0 18.181900000000013 1.6529000000000544 1.6492875714492639 0 0 0
13 0 1 0.0 19.834799999999966 2.9506592128790643e-14 0.00424910415937745 0 0 0
14 0 1 0.0 21.48769999999995 1.6528999999999505 1.6492875714495803 0 0 0
26 0 1 0.0 18.181900000000052 4.9587 1.6492875714492268 0 0 0
27 0 1 0.0 19.834799999999962 3.305800000000007 0.004249104159427015 0 0 0
28 0 1 0.0 21.48769999999996 4.958700000000044 1.6492875714494961 0 0 0
110 0 1 0.0 18.18189999999475 1.6529000000244698 4.959000805296136 0 0 0
111 0 1 0.0 19.834799999999777 5.050037271683501e-14 3.3040366608009117 0 0 0
112 0 1 0.0 21.48770000001807 1.6528999999935652 4.959000804339522 0 0 0
124 0 1 0.0 18.181899999983305 4.958699999977451 4.959000805534577 0 0 0
125 0 1 0.0 19.83479999999975 3.3058000000000427 3.304036660801313 0 0 0
126 0 1 0.0 21.48770000006247 4.958700000014003 4.959000804511099 0 0 0
39 0 1 0.0 16.529000000000067 6.611599999999984 0.004249104159373427 0 0 0
137 0 1 0.0 16.529000000000348 6.61159999999999 3.3040366608002834 0 0 0
41 0 1 0.0 19.834799999999948 6.611599999999978 0.004249104159455607 0 0 0
139 0 1 0.0 19.834799999999735 6.611599999999951 3.3040366608012404 0 0 0
30 0 1 0.0 1.6528999999999485 8.264499999999973 1.6492875714494808 0 0 0
32 0 1 0.0 4.958700000000053 8.264499999999959 1.6492875714494337 0 0 0
43 0 1 0.0 2.570211241270719e-14 9.917400000000033 0.0042491041592853185 0 0 0
45 0 1 0.0 3.305800000000008 9.91740000000004 0.004249104159321733 0 0 0
128 0 1 0.0 1.6528999999832503 8.264499999992179 4.959000804327828 0 0 0
130 0 1 0.0 4.958700000025996 8.264500000012534 4.959000804476342 0 0 0
141 0 1 0.0 1.3936603737890275e-14 9.917400000000116 3.304036660799288 0 0 0
143 0 1 0.0 3.3058000000000445 9.917400000000187 3.3040366607998255 0 0 0
47 0 1 0.0 6.61159999999997 9.917400000000036 0.004249104159322916 0 0 0
145 0 1 0.0 6.611599999999894 9.917400000000121 3.3040366607994835 0 0 0
44 0 1 0.0 1.652900000000052 11.570300000000007 1.6492875714492445 0 0 0
46 0 1 0.0 4.958699999999997 11.570300000000007 1.649287571449174 0 0 0
57 0 1 0.0 1.8905510021347515e-14 13.223199999999956 0.004249104159307359 0 0 0
58 0 1 0.0 1.652899999999925 14.876100000000008 1.6492875714496225 0 0 0
59 0 1 0.0 3.3058000000000076 13.223199999999943 0.004249104159300128 0 0 0
60 0 1 0.0 4.9587000000000545 14.876100000000008 1.649287571449566 0 0 0
142 0 1 0.0 1.6529000000211496 11.57029999999918 4.9590008049554495 0 0 0
144 0 1 0.0 4.958699999978514 11.570299999987213 4.959000805213977 0 0 0
155 0 1 0.0 23.140599999999967 13.223199999999908 3.3040366607991922 -1 0 0
156 0 1 0.0 1.6528999999817369 14.876099999984724 4.959000804125506 0 0 0
157 0 1 0.0 3.3058000000000334 13.223199999999773 3.3040366607996203 0 0 0
158 0 1 0.0 4.958700000013007 14.876099999966284 4.959000804187672 0 0 0
61 0 1 0.0 6.611599999999982 13.22319999999994 0.004249104159332289 0 0 0
159 0 1 0.0 6.611599999999908 13.223199999999844 3.304036660799253 0 0 0
34 0 1 0.0 8.264499999999968 8.264499999999959 1.6492875714494832 0 0 0
49 0 1 0.0 9.917400000000045 9.917400000000043 0.004249104159316668 0 0 0
132 0 1 0.0 8.264500000008404 8.264500000002934 4.959000804179069 0 0 0
147 0 1 0.0 9.91740000000013 9.917400000000173 3.3040366607996132 0 0 0
36 0 1 0.0 11.57030000000004 8.264499999999973 1.649287571449331 0 0 0
38 0 1 0.0 14.876100000000013 8.264499999999954 1.6492875714495752 0 0 0
51 0 1 0.0 13.223199999999936 9.917400000000033 0.004249104159278259 0 0 0
134 0 1 0.0 11.570300000021357 8.26450000002305 4.959000804710398 0 0 0
136 0 1 0.0 14.876099999997475 8.264499999976797 4.959000804014118 0 0 0
149 0 1 0.0 13.223199999999807 9.917400000000033 3.3040366607990572 0 0 0
48 0 1 0.0 8.264499999999993 11.570300000000044 1.6492875714493664 0 0 0
62 0 1 0.0 8.264499999999956 14.876100000000012 1.6492875714496325 0 0 0
63 0 1 0.0 9.917400000000033 13.223199999999945 0.0042491041593003724 0 0 0
146 0 1 0.0 8.264499999993982 11.570299999993358 4.9590008046214775 0 0 0
160 0 1 0.0 8.264500000008958 14.87609999999664 4.959000804083511 0 0 0
161 0 1 0.0 9.917400000000075 13.22319999999985 3.3040366607995266 0 0 0
50 0 1 0.0 11.57029999999997 11.570299999999973 1.649287571449057 0 0 0
52 0 1 0.0 14.876100000000003 11.57030000000007 1.6492875714495618 0 0 0
64 0 1 0.0 11.570300000000051 14.87610000000002 1.6492875714494841 0 0 0
65 0 1 0.0 13.223199999999949 13.223199999999954 0.004249104159277475 0 0 0
66 0 1 0.0 14.876100000000001 14.876099999999994 1.6492875714497246 0 0 0
148 0 1 0.0 11.570299999990045 11.570300000015886 4.95900080540731 0 0 0
150 0 1 0.0 14.876099999967513 11.570299999983561 4.959000804066649 0 0 0
162 0 1 0.0 11.570299999998365 14.876099999949718 4.959000804287561 0 0 0
163 0 1 0.0 13.223199999999764 13.223199999999899 3.3040366607985905 0 0 0
164 0 1 0.0 14.876100000007535 14.876100000026126 4.959000803926983 0 0 0
53 0 1 0.0 16.529000000000064 9.917400000000033 0.004249104159346316 0 0 0
151 0 1 0.0 16.529000000000387 9.917399999999986 3.304036660800224 0 0 0
40 0 1 0.0 18.181900000000002 8.2645 1.649287571449327 0 0 0
42 0 1 0.0 21.487699999999972 8.264499999999959 1.6492875714495734 0 0 0
55 0 1 0.0 19.83479999999995 9.917400000000045 0.0042491041594402024 0 0 0
138 0 1 0.0 18.181899999977713 8.26450000002888 4.95900080511543 0 0 0
140 0 1 0.0 21.487699999990348 8.264500000003666 4.9590008042634075 0 0 0
153 0 1 0.0 19.83479999999974 9.917400000000134 3.3040366608014864 0 0 0
67 0 1 0.0 16.529000000000043 13.223199999999945 0.004249104159329798 0 0 0
165 0 1 0.0 16.52900000000045 13.22319999999988 3.3040366607995857 0 0 0
54 0 1 0.0 18.181900000000066 11.570299999999955 1.6492875714491373 0 0 0
56 0 1 0.0 21.487699999999922 11.570300000000039 1.6492875714494788 0 0 0
68 0 1 0.0 18.181900000000013 14.876100000000033 1.649287571449426 0 0 0
69 0 1 0.0 19.83479999999997 13.223199999999936 0.0042491041594081005 0 0 0
70 0 1 0.0 21.4877 14.876100000000006 1.6492875714496646 0 0 0
152 0 1 0.0 18.181899999977823 11.57029999999829 4.959000805778701 0 0 0
154 0 1 0.0 21.487700000080476 11.570299999997816 4.959000804639053 0 0 0
166 0 1 0.0 18.18190000002926 14.876099999934059 4.95900080459065 0 0 0
167 0 1 0.0 19.834799999999817 13.223199999999848 3.3040366608012466 0 0 0
168 0 1 0.0 21.487699999963585 14.876100000003447 4.95900080423775 0 0 0
71 0 1 0.0 2.6100480494774458e-14 16.52900000000004 0.004249104159354819 0 0 0
73 0 1 0.0 3.3058000000000063 16.52900000000005 0.004249104159371594 0 0 0
169 0 1 0.0 23.140599999999992 16.529000000000327 3.3040366608001697 -1 0 0
171 0 1 0.0 3.3058000000000214 16.52900000000035 3.3040366608005023 0 0 0
75 0 1 0.0 6.611599999999978 16.52900000000005 0.004249104159382849 0 0 0
173 0 1 0.0 6.611599999999983 16.529000000000323 3.304036660800261 0 0 0
72 0 1 0.0 1.6529000000000518 18.181900000000038 1.6492875714492827 0 0 0
74 0 1 0.0 4.958699999999984 18.181900000000052 1.649287571449256 0 0 0
85 0 1 0.0 3.58374284834828e-14 19.834799999999973 0.004249104159399548 0 0 0
86 0 1 0.0 1.6528999999999647 21.487699999999947 1.6492875714495234 0 0 0
87 0 1 0.0 3.305800000000009 19.83479999999997 0.004249104159459273 0 0 0
88 0 1 0.0 4.958700000000014 21.487699999999936 1.6492875714494568 0 0 0
170 0 1 0.0 1.652900000018364 18.181900000005204 4.959000805330536 0 0 0
172 0 1 0.0 4.958700000001757 18.181899999976515 4.959000805498799 0 0 0
183 0 1 0.0 1.0476110967470801e-13 19.834799999999802 3.3040366608011986 0 0 0
184 0 1 0.0 1.6529000000168492 21.487700000041134 4.9590008045438 0 0 0
185 0 1 0.0 3.3058000000000347 19.834799999999802 3.304036660801765 0 0 0
186 0 1 0.0 4.95870000000911 21.48770000005552 4.9590008045856475 0 0 0
89 0 1 0.0 6.611599999999964 19.83479999999996 0.004249104159419902 0 0 0
187 0 1 0.0 6.611599999999888 19.834799999999692 3.3040366608011693 0 0 0
77 0 1 0.0 9.917400000000045 16.52900000000005 0.0042491041593764114 0 0 0
175 0 1 0.0 9.917400000000086 16.529000000000302 3.3040366608006946 0 0 0
79 0 1 0.0 13.223199999999935 16.52900000000004 0.004249104159349542 0 0 0
177 0 1 0.0 13.22319999999983 16.529000000000405 3.304036660800035 0 0 0
76 0 1 0.0 8.264500000000027 18.1819 1.6492875714493451 0 0 0
90 0 1 0.0 8.264499999999972 21.4877 1.6492875714495867 0 0 0
91 0 1 0.0 9.917400000000056 19.834799999999962 0.004249104159462353 0 0 0
174 0 1 0.0 8.264500000003903 18.181899999993096 4.95900080498121 0 0 0
188 0 1 0.0 8.26449999996148 21.487699999963016 4.959000804182345 0 0 0
189 0 1 0.0 9.91740000000011 19.834799999999746 3.3040366608015423 0 0 0
78 0 1 0.0 11.570299999999957 18.181900000000063 1.6492875714491664 0 0 0
80 0 1 0.0 14.87610000000002 18.181899999999995 1.649287571449449 0 0 0
92 0 1 0.0 11.570300000000033 21.487699999999908 1.6492875714494586 0 0 0
93 0 1 0.0 13.223199999999926 19.834799999999973 0.004249104159428552 0 0 0
94 0 1 0.0 14.876099999999989 21.487700000000014 1.6492875714497133 0 0 0
176 0 1 0.0 11.570300000001296 18.18189999995248 4.959000805892237 0 0 0
178 0 1 0.0 14.876099999956336 18.18190000004759 4.959000804491824 0 0 0
190 0 1 0.0 11.570299999988286 21.48770000012755 4.959000804811554 0 0 0
191 0 1 0.0 13.223199999999842 19.834799999999827 3.3040366608012848 0 0 0
192 0 1 0.0 14.876100000020076 21.487699999937497 4.959000804150133 0 0 0
81 0 1 0.0 16.529000000000053 16.52900000000005 0.004249104159386969 0 0 0
179 0 1 0.0 16.529000000000245 16.529000000000295 3.3040366608006493 0 0 0
83 0 1 0.0 19.83479999999996 16.52900000000005 0.0042491041594564525 0 0 0
181 0 1 0.0 19.83479999999985 16.529000000000135 3.304036660801753 0 0 0
95 0 1 0.0 16.529000000000067 19.834799999999962 0.004249104159438412 0 0 0
193 0 1 0.0 16.529000000000188 19.834799999999827 3.304036660801658 0 0 0
82 0 1 0.0 18.181900000000038 18.181900000000052 1.649287571449268 0 0 0
84 0 1 0.0 21.48769999999992 18.18190000000001 1.649287571449451 0 0 0
96 0 1 0.0 18.181900000000024 21.48769999999991 1.6492875714494346 0 0 0
97 0 1 0.0 19.834799999999948 19.834799999999955 0.0042491041595435555 0 0 0
98 0 1 0.0 21.4877 21.487699999999993 1.6492875714496185 0 0 0
180 0 1 0.0 18.18189999993844 18.18189999993748 4.959000806052976 0 0 0
182 0 1 0.0 21.48770000008854 18.18189999999423 4.959000804862646 0 0 0
194 0 1 0.0 18.181900000002887 21.487700000102453 4.959000804915079 0 0 0
195 0 1 0.0 19.83479999999985 19.83479999999985 3.3040366608023195 0 0 0
196 0 1 0.0 21.487700000003464 21.487699999991037 4.959000804416316 0 0 0
197 0 1 0.0 2.0760533977673355e-10 1.1641597819686732e-10 6.611657998190737 0 0 0
198 0 1 0.0 1.6528999997116218 1.6528999998305942 8.264442001411878 0 0 0
199 0 1 0.0 3.305800000071568 4.77655477928588e-11 6.611657997822078 0 0 0
200 0 1 0.0 4.95869999987979 1.6528999999263416 8.264442001502518 0 0 0
211 0 1 0.0 2.110057893929273e-10 3.305800000118416 6.611657997809816 0 0 0
212 0 1 0.0 1.6528999998200642 4.958699999868447 8.264442002028103 0 0 0
213 0 1 0.0 3.3058000001244516 3.3058000002115207 6.61165799735082 0 0 0
214 0 1 0.0 4.9587000000336054 4.958699999981292 8.264442002244863 0 0 0
295 0 1 0.0 23.140599999683968 1.4978743030264474e-10 9.917099199562093 -1 0 0
297 0 1 0.0 3.3058000000425274 5.299954482698152e-10 9.917099201054072 0 0 0
309 0 1 0.0 23.14059999994826 3.305799999742243 9.917099201135063 -1 0 0
311 0 1 0.0 3.305800000079342 3.305799999577212 9.917099203179514 0 0 0
201 0 1 0.0 6.611599999783929 1.08739932461765e-10 6.611657998167617 0 0 0
215 0 1 0.0 6.611599999699079 3.305800000081654 6.611657997676661 0 0 0
299 0 1 0.0 6.61160000094078 7.58607411322971e-10 9.917099200592343 0 0 0
313 0 1 0.0 6.611600000764986 3.305799999043446 9.917099202483863 0 0 0
225 0 1 0.0 1.1303756668327008e-10 6.611599999842481 6.611657998112102 0 0 0
227 0 1 0.0 3.3058000000335377 6.611599999759181 6.611657997661526 0 0 0
323 0 1 0.0 23.140599999997704 6.611600000872974 9.917099199818875 -1 0 0
325 0 1 0.0 3.305799999770483 6.611600000797311 9.9170992012558 0 0 0
229 0 1 0.0 6.611599999849355 6.611599999705497 6.6116579980987655 0 0 0
327 0 1 0.0 6.611600000583523 6.611600000708652 9.917099199605868 0 0 0
296 0 1 0.0 1.6529000011391022 1.6529000007923398 11.572063342091342 0 0 0
298 0 1 0.0 4.958700000338031 1.652900000858489 11.5720633425204 0 0 0
310 0 1 0.0 1.652900000577928 4.958699999449228 11.572063344266144 0 0 0
312 0 1 0.0 4.958699998908996 4.958699998494719 11.572063345027274 0 0 0
202 0 1 0.0 8.264500000255333 1.652899999934977 8.264442000370039 0 0 0
203 0 1 0.0 9.917400000276215 1.3390942059533133e-10 6.611657997848726 0 0 0
216 0 1 0.0 8.264499999919666 4.958700000035319 8.264442001399974 0 0 0
217 0 1 0.0 9.917400000372341 3.3058000001472454 6.611657997390106 0 0 0
301 0 1 0.0 9.917399997889154 1.142045234865172e-10 9.917099200777718 0 0 0
315 0 1 0.0 9.917399998360631 3.305799999939755 9.91709920290279 0 0 0
204 0 1 0.0 11.570300000268064 1.6528999997794038 8.264442002925675 0 0 0
205 0 1 0.0 13.223199999557504 1.272010784387584e-10 6.6116579981098615 0 0 0
206 0 1 0.0 14.876100000204739 1.6528999998462646 8.264442000363394 0 0 0
218 0 1 0.0 11.57030000004023 4.958699999787557 8.26444200243773 0 0 0
219 0 1 0.0 13.223199999405459 3.3058000000802092 6.611657997741381 0 0 0
220 0 1 0.0 14.876100000252409 4.958699999866179 8.264442000878873 0 0 0
303 0 1 0.0 13.223200002002322 23.14059999959863 9.917099199127064 0 -1 0
317 0 1 0.0 13.223200001392767 3.305800000343265 9.917099200674999 0 0 0
231 0 1 0.0 9.917400000299528 6.6115999998451525 6.611657997664402 0 0 0
329 0 1 0.0 9.917399999231058 6.611600000586415 9.917099201537205 0 0 0
233 0 1 0.0 13.223199999595844 6.611599999971083 6.611657998018429 0 0 0
331 0 1 0.0 13.223200000833174 6.611600000636611 9.917099199964825 0 0 0
300 0 1 0.0 8.264499998758462 1.6529000002071148 11.57206333659151 0 0 0
314 0 1 0.0 8.264500001775142 4.958699998140434 11.572063342649827 0 0 0
302 0 1 0.0 11.570299998358326 1.6529000015554944 11.572063349547951 0 0 0
304 0 1 0.0 14.876100001131123 1.6528999996991298 11.572063335799008 0 0 0
316 0 1 0.0 11.570299999499637 4.958700000282145 11.572063344153237 0 0 0
318 0 1 0.0 14.876099999934139 4.958699999413401 11.572063339415076 0 0 0
207 0 1 0.0 16.529000000404938 1.6035586564927522e-10 6.611657997976591 0 0 0
221 0 1 0.0 16.529000000612495 3.3058000000010668 6.6116579976218945 0 0 0
305 0 1 0.0 16.528999997408928 2.979830073928876e-10 9.917099199161658 0 0 0
319 0 1 0.0 16.528999998046555 3.3057999997490963 9.917099200671768 0 0 0
208 0 1 0.0 18.18189999985048 1.6528999998696685 8.26444200282814 0 0 0
209 0 1 0.0 19.834799999705034 2.6735592505268373e-11 6.611657997907703 0 0 0
210 0 1 0.0 21.48769999983148 1.652899999879169 8.264442000994892 0 0 0
222 0 1 0.0 18.18189999992798 4.958700000036234 8.264442002954233 0 0 0
223 0 1 0.0 19.834799999561966 3.3058000000672605 6.611657997515922 0 0 0
224 0 1 0.0 21.487699999994028 4.958699999929695 8.264442001378963 0 0 0
307 0 1 0.0 19.834800001892642 2.139252886612407e-10 9.917099198297581 0 0 0
321 0 1 0.0 19.83480000140464 3.3057999999294867 9.917099199964802 0 0 0
235 0 1 0.0 16.52900000041578 6.611599999883172 6.611657997886106 0 0 0
333 0 1 0.0 16.52899999773427 6.611600000392934 9.9170991992494 0 0 0
237 0 1 0.0 19.834799999703232 6.611599999822163 6.611657997720426 0 0 0
335 0 1 0.0 19.834800001658465 6.611600000163402 9.917099198587907 0 0 0
306 0 1 0.0 18.181899999498132 1.6529000014272428 11.572063345860096 0 0 0
308 0 1 0.0 21.48770000078943 1.6529000001566034 11.572063338995367 0 0 0
320 0 1 0.0 18.181900000034556 4.9586999985762805 11.572063344859266 0 0 0
322 0 1 0.0 21.487699999381082 4.958699999593773 11.572063340258369 0 0 0
226 0 1 0.0 1.652899999825368 8.264500000094996 8.264442000882335 0 0 0
228 0 1 0.0 4.958699999965392 8.264500000105404 8.264442001381438 0 0 0
239 0 1 0.0 1.84249373881974e-10 9.917400000214387 6.611657997841725 0 0 0
241 0 1 0.0 3.305800000108374 9.917400000361202 6.611657997385487 0 0 0
337 0 1 0.0 3.026191709234575e-10 9.91739999884666 9.917099201226202 0 0 0
339 0 1 0.0 3.3057999997625958 9.91739999923401 9.917099203203055 0 0 0
243 0 1 0.0 6.611599999805225 9.91740000024392 6.611657997716281 0 0 0
341 0 1 0.0 6.611600000575001 9.917399998976155 9.917099201491553 0 0 0
240 0 1 0.0 1.6528999999221552 11.570300000036314 8.264442002166202 0 0 0
242 0 1 0.0 4.958699999912849 11.570300000053306 8.264442002469314 0 0 0
253 0 1 0.0 1.2288143527417418e-10 13.223199999631142 6.611657998123296 0 0 0
254 0 1 0.0 1.652899999905966 14.876100000310588 8.26444200058381 0 0 0
255 0 1 0.0 3.3058000000834373 13.223199999500912 6.6116579977277645 0 0 0
256 0 1 0.0 4.958699999888082 14.876100000214954 8.264442000966808 0 0 0
351 0 1 0.0 8.79253828517725e-13 13.22320000126049 9.917099199788966 0 0 0
353 0 1 0.0 3.3057999998161356 13.22320000077213 9.917099201360143 0 0 0
257 0 1 0.0 6.611599999843147 13.223199999662953 6.611657998057849 0 0 0
355 0 1 0.0 6.61160000075077 13.223200001078297 9.917099199863495 0 0 0
324 0 1 0.0 1.6529000004031664 8.264500000950614 11.572063339273374 0 0 0
326 0 1 0.0 4.958699999187421 8.264500001075989 11.572063341596014 0 0 0
338 0 1 0.0 1.6529000010994752 11.570299999084437 11.572063345165041 0 0 0
340 0 1 0.0 4.958699998653465 11.570299999065467 11.572063345617773 0 0 0
352 0 1 0.0 1.6528999998461218 14.876100000043914 11.572063337489944 0 0 0
354 0 1 0.0 4.958700000091982 14.876100000566675 11.572063339581405 0 0 0
230 0 1 0.0 8.264500000100174 8.264500000141206 8.264442000487607 0 0 0
245 0 1 0.0 9.917400000351353 9.917400000247662 6.611657997339831 0 0 0
343 0 1 0.0 9.917399999369229 9.917399999325422 9.917099203733226 0 0 0
232 0 1 0.0 11.570300000043426 8.264499999990235 8.26444200200375 0 0 0
234 0 1 0.0 14.876100000274533 8.264499999983876 8.264442000021903 0 0 0
247 0 1 0.0 13.223199999439473 9.917400000213906 6.61165799772117 0 0 0
345 0 1 0.0 13.223200000801507 9.917399999466413 9.917099202243433 0 0 0
244 0 1 0.0 8.26449999995533 11.570300000026684 8.264442001865163 0 0 0
258 0 1 0.0 8.264500000029928 14.876100000265405 8.264441999948165 0 0 0
259 0 1 0.0 9.917400000289758 13.223199999508637 6.611657997748519 0 0 0
357 0 1 0.0 9.917399998966841 13.223200000415805 9.917099201440418 0 0 0
246 0 1 0.0 11.570299999910274 11.57030000001934 8.264442002473762 0 0 0
248 0 1 0.0 14.876100000212343 11.570299999861993 8.264442001155071 0 0 0
260 0 1 0.0 11.570299999955017 14.876100000215587 8.26444200180726 0 0 0
261 0 1 0.0 13.223199999594785 13.223199999651932 6.611657998100489 0 0 0
262 0 1 0.0 14.876100000368478 14.876100000535358 8.264441998919704 0 0 0
359 0 1 0.0 13.223200001784917 13.22320000093455 9.917099200756086 0 0 0
328 0 1 0.0 8.264500000422196 8.264500000634197 11.572063337998676 0 0 0
330 0 1 0.0 11.570299999333036 8.26450000145181 11.572063344274072 0 0 0
332 0 1 0.0 14.876099999567023 8.264500000593706 11.572063335620664 0 0 0
342 0 1 0.0 8.26450000185931 11.570299999795827 11.572063344149447 0 0 0
356 0 1 0.0 8.264499999536488 14.87609999948468 11.572063334234674 0 0 0
344 0 1 0.0 11.570299999266869 11.570299998014773 11.572063345781272 0 0 0
346 0 1 0.0 14.876100000843259 11.57030000107111 11.572063341648636 0 0 0
358 0 1 0.0 11.570300000714731 14.876100001268973 11.572063344667452 0 0 0
360 0 1 0.0 14.876099999093249 14.876099998061523 11.572063328690069 0 0 0
249 0 1 0.0 16.529000000529894 9.91740000022716 6.611657997575431 0 0 0
347 0 1 0.0 16.52899999766164 9.917399999786527 9.917099201301953 0 0 0
236 0 1 0.0 18.18189999991339 8.26449999989422 8.264442002875258 0 0 0
238 0 1 0.0 21.487699999816822 8.264500000061865 8.264442000637068 0 0 0
251 0 1 0.0 19.834799999586288 9.917400000159434 6.611657997496252 0 0 0
349 0 1 0.0 19.834800001347535 9.917399999710007 9.91709919984096 0 0 0
263 0 1 0.0 16.529000000428958 13.223199999712792 6.611657997889902 0 0 0
361 0 1 0.0 16.52899999690007 13.223200000648877 9.917099200391023 0 0 0
250 0 1 0.0 18.1818999999778 11.570300000158685 8.264442002961445 0 0 0
252 0 1 0.0 21.48770000009563 11.57030000009682 8.264442001869538 0 0 0
264 0 1 0.0 18.181900000025173 14.876099999923792 8.264442002671155 0 0 0
265 0 1 0.0 19.834799999636566 13.223199999720089 6.611657997807672 0 0 0
266 0 1 0.0 21.48769999979387 14.876100000239605 8.264442000174586 0 0 0
363 0 1 0.0 19.834800001668196 13.223200000167477 9.917099198442084 0 0 0
334 0 1 0.0 18.181899999771357 8.264500001373776 11.572063346350033 0 0 0
336 0 1 0.0 21.48770000177721 8.264500000061286 11.572063337188556 0 0 0
348 0 1 0.0 18.181899999738263 11.570299998360396 11.572063344797881 0 0 0
350 0 1 0.0 21.487699998669186 11.570299999813013 11.57206334273238 0 0 0
362 0 1 0.0 18.18189999829509 14.87610000197282 11.572063347503068 0 0 0
364 0 1 0.0 21.48770000268502 14.876099999287977 11.572063334366636 0 0 0
267 0 1 0.0 1.317162544191789e-10 16.529000000323073 6.611657997971865 0 0 0
269 0 1 0.0 3.3058000000518843 16.52900000047467 6.611657997600921 0 0 0
365 0 1 0.0 1.9924446947512682e-10 16.528999997439755 9.917099199080978 0 0 0
367 0 1 0.0 3.3057999998431877 16.528999998026755 9.917099200620529 0 0 0
271 0 1 0.0 6.6115999998248745 16.52900000041036 6.611657997887998 0 0 0
369 0 1 0.0 6.6116000003542466 16.528999997574633 9.917099199282342 0 0 0
268 0 1 0.0 1.6528999998217504 18.181899999936334 8.264442002767014 0 0 0
270 0 1 0.0 4.95870000013784 18.18189999984442 8.264442002879512 0 0 0
281 0 1 0.0 5.4220229487208396e-11 19.834799999753866 6.6116579978711405 0 0 0
282 0 1 0.0 1.6528999998124203 21.487699999953037 8.264442001399457 0 0 0
283 0 1 0.0 3.3058000000238796 19.834799999627514 6.611657997484961 0 0 0
284 0 1 0.0 4.958699999912268 21.48769999989661 8.264442001486614 0 0 0
379 0 1 0.0 23.14059999998135 19.83480000173884 9.917099198080088 -1 0 0
381 0 1 0.0 3.3058000000619137 19.834800001211022 9.917099199583145 0 0 0
285 0 1 0.0 6.611599999878454 19.83479999979379 6.611657997777826 0 0 0
383 0 1 0.0 6.61160000015791 19.83480000173804 9.91709919857401 0 0 0
366 0 1 0.0 1.6529000014379767 18.181899999316016 11.57206334503779 0 0 0
368 0 1 0.0 4.958699998315699 18.181900000043463 11.5720633446425 0 0 0
380 0 1 0.0 1.65290000011625 21.487700000136684 11.57206334049869 0 0 0
382 0 1 0.0 4.958699999976558 21.487699999743324 11.57206334119027 0 0 0
273 0 1 0.0 9.917400000260134 16.52900000050747 6.611657997580818 0 0 0
371 0 1 0.0 9.917399999374569 16.52899999803712 9.91709920051867 0 0 0
275 0 1 0.0 13.223199999635652 16.529000000333713 6.611657997852128 0 0 0
373 0 1 0.0 13.223200001036096 16.52899999728322 9.917099199923182 0 0 0
272 0 1 0.0 8.264499999857595 18.18189999992271 8.264442002764257 0 0 0
286 0 1 0.0 8.264500000025304 21.487699999604327 8.264442000589089 0 0 0
287 0 1 0.0 9.917400000301502 19.834799999624607 6.611657997484985 0 0 0
385 0 1 0.0 9.917399999757622 19.834800001320342 9.91709919976344 0 0 0
274 0 1 0.0 11.570300000148528 18.18190000000293 8.264442002974965 0 0 0
276 0 1 0.0 14.87609999994534 18.181900000106392 8.264442002594341 0 0 0
288 0 1 0.0 11.570300000100309 21.487700000171102 8.264442001968664 0 0 0
289 0 1 0.0 13.22319999960859 19.834799999621765 6.611657997797298 0 0 0
290 0 1 0.0 14.876100000254205 21.487699999775117 8.26444200014208 0 0 0
387 0 1 0.0 13.223200000076927 19.83480000160326 9.9170991982974 0 0 0
370 0 1 0.0 8.264500001554168 18.18189999951333 11.572063346317858 0 0 0
384 0 1 0.0 8.264500000689445 21.487700002743157 11.572063337486892 0 0 0
372 0 1 0.0 11.570299998532969 18.181900000691886 11.57206334359288 0 0 0
374 0 1 0.0 14.876100001475434 18.18189999794182 11.57206334733784 0 0 0
386 0 1 0.0 11.57029999995869 21.48769999701436 11.572063342118158 0 0 0
388 0 1 0.0 14.876099998959633 21.487700003421544 11.572063334177242 0 0 0
277 0 1 0.0 16.529000000404658 16.5290000003135 6.611657997729896 0 0 0
375 0 1 0.0 16.528999998108002 16.528999998016523 9.917099199626321 0 0 0
279 0 1 0.0 19.83479999968862 16.529000000431182 6.6116579976673995 0 0 0
377 0 1 0.0 19.83480000099808 16.528999999165116 9.91709919822864 0 0 0
291 0 1 0.0 16.52900000041766 19.834799999701485 6.611657997720247 0 0 0
389 0 1 0.0 16.528999999271957 19.83480000104539 9.917099198034212 0 0 0
278 0 1 0.0 18.18189999986683 18.181899999891826 8.264442002915795 0 0 0
280 0 1 0.0 21.487700000217927 18.18189999997913 8.264442002614476 0 0 0
292 0 1 0.0 18.181899999978892 21.48770000022404 8.264442002658592 0 0 0
293 0 1 0.0 19.834799999720108 19.834799999774454 6.611657997541409 0 0 0
294 0 1 0.0 21.487699999862155 21.487699999807823 8.26444200070682 0 0 0
391 0 1 0.0 19.834800000548285 19.834800000630942 9.917099197943548 0 0 0
376 0 1 0.0 18.18190000099228 18.181900000889925 11.57206334046852 0 0 0
378 0 1 0.0 21.4876999977485 18.181899999663184 11.572063344669726 0 0 0
390 0 1 0.0 18.181899999650863 21.48769999741935 11.572063344751047 0 0 0
392 0 1 0.0 21.48770000105565 21.48770000145662 11.572063336176235 0 0 0
393 0 1 0.0 1.1814761126869777e-09 2.004148926203265e-09 13.226812449133988 0 0 0
394 0 1 0.0 1.6528982048758842 1.6528975971303965 14.871860595200628 0 0 0
395 0 1 0.0 3.305800001330013 3.877431329408351e-09 13.226812448190271 0 0 0
396 0 1 0.0 4.958704048682866 1.6528974212887926 14.87186139130766 0 0 0
407 0 1 0.0 4.6017898116542796e-10 3.3057999977696846 13.226812449418405 0 0 0
408 0 1 0.0 1.652898826343964 4.958702202406323 14.871857600555975 0 0 0
409 0 1 0.0 3.3058000004697203 3.3057999944940124 13.226812447936908 0 0 0
410 0 1 0.0 4.958701411567293 4.958701646782338 14.871856619634265 0 0 0
397 0 1 0.0 6.611600004596466 3.74752935943774e-09 13.22681245225344 0 0 0
411 0 1 0.0 6.6116000059573 3.3057999959054643 13.226812453284643 0 0 0
421 0 1 0.0 1.0853502980834129e-09 6.61160000382844 13.226812449907479 0 0 0