ITEM: TIMESTEP
0
ITEM: NUMBER OF ATOMS
4832
ITEM: BOX BOUNDS pp pp pp
0.0000000000000000e+00 3.3058000000000000e+01
0.0000000000000000e+00 3.3058000000000000e+01
0.0000000000000000e+00 2.6500000000000000e+02
ITEM: ATOMS id type x y z fx fy fz vx vy vz
4001 2 6.7699 6.44916 6.88472 50.5045 120.906 25.3037 0 0 0
4002 2 7.2301 7.55084 7.11528 -50.5045 -120.906 -25.3037 0 0 0
4003 2 13.6246 7.3799 6.70942 82.3902 -83.3864 63.7802 0 0 0
4004 2 14.3754 6.6201 7.29058 -82.3902 83.3864 -63.7802 0 0 0
4006 2 20.6248 7.35635 7.31918 82.36 -78.2173 -70.0587 0 0 0
4005 2 21.3752 6.64365 6.68082 -82.36 78.2173 70.0587 0 0 0
4007 2 27.3999 7.09797 6.99842 131.707 -21.5027 0.345901 0 0 0
4008 2 28.6001 6.90203 7.00158 -131.707 21.5027 -0.345901 0 0 0
4009 2 7.14181 13.8509 7.57213 -31.1258 32.7166 -125.579 0 0 0
4010 2 6.85819 14.1491 6.42787 31.1258 -32.7166 125.579 0 0 0
4011 2 13.871 13.6236 6.54031 28.3146 82.6257 100.899 0 0 0
4012 2 14.129 14.3764 7.45969 -28.3146 -82.6257 -100.899 0 0 0
4013 2 20.3922 14.0101 7.01022 133.414 -2.22592 -2.24374 0 0 0
4014 2 21.6078 13.9899 6.98978 -133.414 2.22592 2.24374 0 0 0
4015 2 27.8577 13.6841 6.50042 31.2403 69.3483 109.655 0 0 0
4016 2 28.1423 14.3159 7.49958 -31.2403 -69.3483 -109.655 0 0 0
4020 2 14.2946 20.5882 6.66348 -64.667 90.3977 73.8632 0 0 0
4021 2 20.56 20.6511 6.7668 96.5692 76.5753 51.1856 0 0 0
4023 2 28.4311 20.6138 6.81368 -94.6138 84.7654 40.895 0 0 0
4017 2 6.5698 20.7974 7.37889 94.4257 44.4607 -83.1647 0 0 0
4018 2 7.4302 21.2026 6.62111 -94.4257 -44.4607 83.1647 0 0 0
4019 2 13.7054 21.4118 7.33652 64.667 -90.3977 -73.8632 0 0 0
4022 2 21.44 21.3489 7.2332 -96.5692 -76.5753 -51.1856 0 0 0
4024 2 27.5689 21.3862 7.18632 94.6138 -84.7654 -40.895 0 0 0
4025 2 7.47461 28.343 6.83643 -104.174 -75.2873 35.9025 0 0 0
4026 2 6.52539 27.657 7.16357 104.174 75.2873 -35.9025 0 0 0
4027 2 14.4018 28.4166 7.18616 -88.1854 -91.4503 -40.8598 0 0 0
4028 2 13.5982 27.5834 6.81384 88.1854 91.4503 40.8598 0 0 0
4029 2 20.5014 28.135 6.67928 109.436 -29.6233 70.3955 0 0 0
4030 2 21.4986 27.865 7.32072 -109.436 29.6233 -70.3955 0 0 0
4031 2 27.7197 27.4763 6.87018 61.5327 114.94 28.4951 0 0 0
4032 2 28.2803 28.5237 7.12982 -61.5327 -114.94 -28.4951 0 0 0
4033 2 7.22446 6.88017 14.5522 -49.2683 26.3027 -121.203 0 0 0
4034 2 6.77554 7.11983 13.4478 49.2683 -26.3027 121.203 0 0 0
4035 2 13.751 7.12736 13.4601 54.6431 -27.9541 118.499 0 0 0
4036 2 14.249 6.87264 14.5399 -54.6431 27.9541 -118.499 0 0 0
4037 2 20.8027 6.72834 14.5069 43.2998 59.6282 -111.261 0 0 0
4038 2 21.1973 7.27166 13.4931 -43.2998 -59.6282 111.261 0 0 0
4039 2 27.455 7.26789 13.9703 119.622 -58.7995 6.52877 0 0 0
4040 2 28.545 6.73211 14.0297 -119.622 58.7995 -6.52877 0 0 0
4041 2 7.31561 13.9735 14.519 -69.2734 5.82405 -113.915 0 0 0
4042 2 6.68439 14.0265 13.481 69.2734 -5.82405 113.915 0 0 0
4043 2 14.3569 14.4139 13.7335 -78.3275 -90.8418 58.4971 0 0 0
4044 2 13.6431 13.5861 14.2665 78.3275 90.8418 -58.4971 0 0 0
4045 2 21.2036 14.1589 13.4496 -44.682 -34.8803 120.815 0 0 0
4046 2 20.7964 13.8411 14.5504 44.682 34.8803 -120.815 0 0 0
4047 2 27.8496 14.5589 13.8137 33.014 -122.666 40.8961 0 0 0
4048 2 28.1504 13.4411 14.1863 -33.014 122.666 -40.8961 0 0 0
4050 2 7.20234 20.5428 14.346 -44.4117 100.347 -75.9441 0 0 0
4051 2 13.7036 20.4814 14.1132 65.0616 113.84 -24.836 0 0 0
4049 2 6.79766 21.4572 13.654 44.4117 -100.347 75.9441 0 0 0
4052 2 14.2964 21.5186 13.8868 -65.0616 -113.84 24.836 0 0 0
4053 2 20.7245 20.9172 14.5357 60.4653 18.1719 -117.572 0 0 0
4054 2 21.2755 21.0828 13.4643 -60.4653 -18.1719 117.572 0 0 0
4055 2 28.2056 20.8195 13.457 -45.1308 39.6171 119.176 0 0 0
4056 2 27.7944 21.1805 14.543 45.1308 -39.6171 -119.176 0 0 0
4057 2 6.55341 27.6577 13.7696 98.0234 75.1216 50.5717 0 0 0
4058 2 7.44659 28.3423 14.2304 -98.0234 -75.1216 -50.5717 0 0 0
4060 2 14.0688 27.4188 14.1646 -15.1012 127.575 -36.1374 0 0 0
4059 2 13.9312 28.5812 13.8354 15.1012 -127.575 36.1374 0 0 0
4061 2 20.4714 27.882 14.2763 116.017 25.9042 -60.65 0 0 0
4062 2 21.5286 28.118 13.7237 -116.017 -25.9042 60.65 0 0 0
4063 2 27.5023 28.1073 13.6677 109.251 -23.5422 72.9343 0 0 0
4064 2 28.4977 27.8927 14.3323 -109.251 23.5422 -72.9343 0 0 0
4069 2 20.824 7.48978 20.6857 38.6337 -107.504 68.9908 0 0 0
4080 2 28.0761 13.9956 20.3968 -16.6953 0.959557 132.4 0 0 0
4082 2 7.43233 21.2682 20.6671 -94.8937 -58.8647 73.0717 0 0 0
4085 2 20.7485 21.4606 20.693 55.1994 -101.106 67.3787 0 0 0
4093 2 20.5126 28.0199 20.6371 106.982 -4.37857 79.6561 0 0 0
4095 2 28.0137 28.399 20.5414 -3.01028 -87.5791 100.649 0 0 0
4065 2 7.41546 6.64249 21.2632 -91.1898 78.4703 -57.7596 0 0 0
4066 2 6.58454 7.35751 20.7368 91.1898 -78.4703 57.7596 0 0 0
4067 2 13.4831 7.31873 21.0294 113.461 -69.9588 -6.45881 0 0 0
4068 2 14.5169 6.68127 20.9706 -113.461 69.9588 6.45881 0 0 0
4070 2 21.176 6.51022 21.3143 -38.6337 107.504 -68.9908 0 0 0
4071 2 27.4017 7.08135 21.0717 131.313 -17.8557 -15.7298 0 0 0
4072 2 28.5983 6.91865 20.9283 -131.313 17.8557 15.7298 0 0 0
4073 2 6.48629 13.6758 20.9742 112.756 71.1563 5.67145 0 0 0
4074 2 7.51371 14.3242 21.0258 -112.756 -71.1563 -5.67145 0 0 0
4075 2 13.469 13.7174 21.0889 116.54 62.0252 -19.5102 0 0 0
4076 2 14.531 14.2826 20.9111 -116.54 -62.0252 19.5102 0 0 0
4077 2 20.6577 14.4322 21.2563 75.1378 -94.866 -56.2502 0 0 0
4078 2 21.3423 13.5678 20.7437 -75.1378 94.866 56.2502 0 0 0
4079 2 27.9239 14.0044 21.6032 16.6953 -0.959557 -132.4 0 0 0
4086 2 21.2515 20.5394 21.307 -55.1994 101.106 -67.3787 0 0 0
4081 2 6.56767 20.7318 21.3329 94.8937 58.8647 -73.0717 0 0 0
4083 2 13.4295 21.1951 20.9217 125.219 -42.8292 17.1846 0 0 0
4084 2 14.5705 20.8049 21.0783 -125.219 42.8292 -17.1846 0 0 0
4087 2 27.4105 21.1123 21.0977 129.393 -24.6459 -21.4338 0 0 0
4088 2 28.5895 20.8877 20.9023 -129.393 24.6459 21.4338 0 0 0
4089 2 7.52876 28.2993 20.9774 -116.058 -65.691 4.95367 0 0 0
4090 2 6.47124 27.7007 21.0226 116.058 65.691 -4.95367 0 0 0
4091 2 14.5492 27.8284 21.1964 -120.552 37.6666 -43.1032 0 0 0
4092 2 13.4508 28.1716 20.8036 120.552 -37.6666 43.1032 0 0 0
4094 2 21.4874 27.9801 21.3629 -106.982 4.37857 -79.6561 0 0 0
4096 2 27.9863 27.601 21.4586 3.01028 87.5791 -100.649 0 0 0
4097 2 6.39817 7.01323 27.9146 132.098 -2.9042 18.7375 0 0 0
4098 2 7.60183 6.98677 28.0854 -132.098 2.9042 -18.7375 0 0 0
4099 2 13.3946 7.01725 28.0535 132.881 -3.78635 -11.7331 0 0 0
4100 2 14.6054 6.98275 27.9465 -132.881 3.78635 11.7331 0 0 0
4101 2 20.4084 7.10249 28.0958 129.852 -22.496 -21.0166 0 0 0
4102 2 21.5916 6.89751 27.9042 -129.852 22.496 21.0166 0 0 0
4103 2 27.4818 7.25889 27.8153 113.737 -56.8244 40.5501 0 0 0
4104 2 28.5182 6.74111 28.1847 -113.737 56.8244 -40.5501 0 0 0
4105 2 6.41642 13.9245 28.153 128.091 16.5729 -33.5772 0 0 0
4106 2 7.58358 14.0755 27.847 -128.091 -16.5729 33.5772 0 0 0
4107 2 13.9529 13.9253 27.3984 10.3392 16.3861 132.038 0 0 0
4108 2 14.0471 14.0747 28.6016 -10.3392 -16.3861 -132.038 0 0 0
4109 2 20.392 13.9993 28.004 133.449 0.162251 -0.886921 0 0 0
4110 2 21.608 14.0007 27.996 -133.449 -0.162251 0.886921 0 0 0
4111 2 27.8432 13.9598 27.4139 34.4203 8.82197 128.634 0 0 0
4112 2 28.1568 14.0402 28.5861 -34.4203 -8.82197 -128.634 0 0 0
4116 2 14.2098 20.4368 27.9082 -46.0597 123.62 20.1459 0 0 0
4119 2 28.0576 20.5021 27.6559 -12.6386 109.291 75.532 0 0 0
4114 2 6.56426 20.9895 27.5761 95.6413 2.30662 93.0418 0 0 0
4113 2 7.43574 21.0105 28.4239 -95.6413 -2.30662 -93.0418 0 0 0
4115 2 13.7902 21.5632 28.0918 46.0597 -123.62 -20.1459 0 0 0
4117 2 20.5713 20.8743 28.4124 94.086 27.5967 -90.5295 0 0 0
4118 2 21.4287 21.1257 27.5876 -94.086 -27.5967 90.5295 0 0 0
4120 2 27.9424 21.4979 28.3441 12.6386 -109.291 -75.532 0 0 0
4121 2 6.59876 27.5654 28.1406 88.0704 95.3997 -30.8519 0 0 0
4122 2 7.40124 28.4346 27.8594 -88.0704 -95.3997 30.8519 0 0 0
4124 2 14.2556 27.4605 28.1151 -56.1104 118.416 -25.272 0 0 0
4123 2 13.7444 28.5395 27.8849 56.1104 -118.416 25.272 0 0 0
4125 2 20.5399 27.7771 27.6709 100.988 48.9243 72.2305 0 0 0
4126 2 21.4601 28.2229 28.3291 -100.988 -48.9243 -72.2305 0 0 0
4127 2 27.9512 27.502 28.3454 10.7135 109.302 -75.8133 0 0 0
4128 2 28.0488 28.498 27.6546 -10.7135 -109.302 75.8133 0 0 0
4129 2 6.85607 7.41214 34.5768 31.5919 -90.4623 92.8863 0 0 0
4130 2 7.14393 6.58786 35.4232 -31.5919 90.4623 -92.8863 0 0 0
4131 2 13.6607 6.57812 34.7234 74.481 92.6003 60.7215 0 0 0
4132 2 14.3393 7.42188 35.2766 -74.481 -92.6003 -60.7215 0 0 0
4133 2 20.9015 6.69851 35.5187 21.6141 66.1741 -113.856 0 0 0
4134 2 21.0985 7.30149 34.4813 -21.6141 -66.1741 113.856 0 0 0
4135 2 27.408 6.86816 34.958 129.95 28.9379 9.22038 0 0 0
4136 2 28.592 7.13184 35.042 -129.95 -28.9379 -9.22038 0 0 0
4137 2 7.1719 13.8435 35.5618 -37.7308 34.3497 -123.312 0 0 0
4138 2 6.8281 14.1565 34.4382 37.7308 -34.3497 123.312 0 0 0
4139 2 13.5429 13.8493 34.6285 100.324 33.0755 81.5505 0 0 0
4140 2 14.4571 14.1507 35.3715 -100.324 -33.0755 -81.5505 0 0 0
4141 2 20.9011 13.616 34.5391 21.7016 84.2854 101.165 0 0 0
4142 2 21.0989 14.384 35.4609 -21.7016 -84.2854 -101.165 0 0 0
4144 2 27.4935 13.8231 35.2861 111.164 38.8376 -62.7975 0 0 0
4143 2 28.5065 14.1769 34.7139 -111.164 -38.8376 62.7975 0 0 0
4146 2 7.22621 20.4764 34.7894 -49.6505 114.926 46.218 0 0 0
4147 2 13.6783 20.5155 35.1773 70.6205 106.334 -38.9263 0 0 0
4145 2 6.77379 21.5236 35.2106 49.6505 -114.926 -46.218 0 0 0
4148 2 14.3217 21.4845 34.8227 -70.6205 -106.334 38.9263 0 0 0
4149 2 20.5921 20.8656 35.4304 89.5309 29.509 -94.4604 0 0 0
4150 2 21.4079 21.1344 34.5696 -89.5309 -29.509 94.4604 0 0 0
4151 2 27.5469 21.2077 35.3482 99.4507 -45.5948 -76.4199 0 0 0
4152 2 28.4531 20.7923 34.6518 -99.4507 45.5948 76.4199 0 0 0
4153 2 6.49268 27.7936 34.736 111.353 45.2965 57.9497 0 0 0
4154 2 7.50732 28.2064 35.264 -111.353 -45.2965 -57.9497 0 0 0
4155 2 13.4179 27.9112 35.1514 127.769 19.4914 -33.236 0 0 0
4156 2 14.5821 28.0888 34.8486 -127.769 -19.4914 33.236 0 0 0
4157 2 20.4076 28.1295 34.9561 130.033 -28.4232 9.63422 0 0 0
4158 2 21.5924 27.8705 35.0439 -130.033 28.4232 -9.63422 0 0 0
4160 2 27.4551 28.0989 35.2509 119.608 -21.7101 -55.0624 0 0 0
4159 2 28.5449 27.9011 34.7491 -119.608 21.7101 55.0624 0 0 0
4161 2 7.41524 7.28358 41.6582 -91.1421 -62.2444 75.0206 0 0 0
4162 2 6.58476 6.71642 42.3418 91.1421 62.2444 -75.0206 0 0 0
4163 2 13.5621 6.62146 42.1861 96.1146 83.0874 -40.8387 0 0 0
4164 2 14.4379 7.37854 41.8139 -96.1146 -83.0874 40.8387 0 0 0
4165 2 20.4486 6.8027 41.8367 121.034 43.3054 35.8434 0 0 0
4166 2 21.5514 7.1973 42.1633 -121.034 -43.3054 -35.8434 0 0 0
4167 2 28.3612 7.40848 41.7311 -79.2895 -89.6594 59.023 0 0 0
4168 2 27.6388 6.59152 42.2689 79.2895 89.6594 -59.023 0 0 0
4169 2 6.39332 14.04 42.0027 133.161 -8.78263 -0.594377 0 0 0
4170 2 7.60668 13.96 41.9973 -133.161 8.78263 0.594377 0 0 0
4171 2 13.399 13.9123 41.9714 131.906 19.2546 6.27433 0 0 0
4172 2 14.601 14.0877 42.0286 -131.906 -19.2546 -6.27433 0 0 0
4173 2 20.6969 13.498 42.1608 66.521 110.177 -35.288 0 0 0
4174 2 21.3031 14.502 41.8392 -66.521 -110.177 35.288 0 0 0
4175 2 27.7366 14.3742 42.4003 57.8244 -82.1356 -87.8602 0 0 0
4176 2 28.2634 13.6258 41.5997 -57.8244 82.1356 87.8602 0 0 0
4180 2 13.8189 20.4848 42.2673 39.7568 113.076 -58.6732 0 0 0
4181 2 20.9164 20.417 41.849 18.351 127.962 33.1411 0 0 0
4177 2 7.30076 21.2559 42.4623 -66.0146 -56.165 -101.474 0 0 0
4178 2 6.69924 20.7441 41.5377 66.0146 56.165 101.474 0 0 0
4179 2 14.1811 21.5152 41.7327 -39.7568 -113.076 58.6732 0 0 0
4182 2 21.0836 21.583 42.151 -18.351 -127.962 -33.1411 0 0 0
4184 2 27.3974 21.0805 41.9968 132.274 -17.6731 0.698484 0 0 0
4183 2 28.6026 20.9195 42.0032 -132.274 17.6731 -0.698484 0 0 0
4185 2 6.4879 28.0942 42.3139 112.402 -20.6714 -68.9051 0 0 0
4186 2 7.5121 27.9058 41.6861 -112.402 20.6714 68.9051 0 0 0
4187 2 14.4253 27.7565 42.3598 -93.3572 53.4414 -78.9797 0 0 0
4188 2 13.5747 28.2435 41.6402 93.3572 -53.4414 78.9797 0 0 0
4189 2 20.4522 27.8098 42.1828 120.239 41.7425 -40.1192 0 0 0
4190 2 21.5478 28.1902 41.8172 -120.239 -41.7425 40.1192 0 0 0
4191 2 27.7919 27.4394 42.11 45.6774 123.044 -24.1477 0 0 0
4192 2 28.2081 28.5606 41.89 -45.6774 -123.044 24.1477 0 0 0
4193 2 6.47755 6.781 49.2208 114.675 48.0682 -48.4614 0 0 0
4194 2 7.52245 7.219 48.7792 -114.675 -48.0682 48.4614 0 0 0
4195 2 13.6428 6.82176 48.5414 78.4097 39.1234 100.651 0 0 0
4196 2 14.3572 7.17824 49.4586 -78.4097 -39.1234 -100.651 0 0 0
4197 2 20.4041 6.88267 48.9714 130.793 25.7529 6.27823 0 0 0
4198 2 21.5959 7.11733 49.0286 -130.793 -25.7529 -6.27823 0 0 0
4199 2 27.4314 6.81768 48.8852 124.793 40.0169 25.1942 0 0 0
4200 2 28.5686 7.18232 49.1148 -124.793 -40.0169 -25.1942 0 0 0
4201 2 6.84381 13.4125 48.9888 34.2837 128.949 2.45322 0 0 0
4202 2 7.15619 14.5875 49.0112 -34.2837 -128.949 -2.45322 0 0 0
4203 2 13.448 13.9512 49.2501 121.164 10.7057 -54.8999 0 0 0
4204 2 14.552 14.0488 48.7499 -121.164 -10.7057 54.8999 0 0 0
4206 2 20.4021 13.9537 49.1002 131.234 10.1644 -21.9918 0 0 0
4205 2 21.5979 14.0463 48.8998 -131.234 -10.1644 21.9918 0 0 0
4207 2 27.7951 14.434 49.3733 44.9831 -95.2545 -81.9295 0 0 0
4208 2 28.2049 13.566 48.6267 -44.9831 95.2545 81.9295 0 0 0
4209 2 6.61576 20.5494 49.1378 84.338 98.904 -30.2395 0 0 0
4212 2 14.2286 20.4388 48.9498 -50.1699 123.171 11.0102 0 0 0
4215 2 27.7802 20.4914 48.7497 48.2453 111.639 54.9405 0 0 0
4210 2 7.38424 21.4506 48.8622 -84.338 -98.904 30.2395 0 0 0
4211 2 13.7714 21.5612 49.0502 50.1699 -123.171 -11.0102 0 0 0
4214 2 20.4122 21.119 49.1001 129.009 -26.1293 -21.9815 0 0 0
4213 2 21.5878 20.881 48.8999 -129.009 26.1293 21.9815 0 0 0
4216 2 28.2198 21.5086 49.2503 -48.2453 -111.639 -54.9405 0 0 0
4217 2 7.09435 27.7239 49.5334 -20.7094 60.6005 -117.081 0 0 0
4218 2 6.90565 28.2761 48.4666 20.7094 -60.6005 117.081 0 0 0
4219 2 13.4014 28.0844 48.9354 131.395 -18.5287 14.187 0 0 0
4220 2 14.5986 27.9156 49.0646 -131.395 18.5287 -14.187 0 0 0
4221 2 20.536 27.6219 49.1068 101.85 82.9849 -23.4384 0 0 0
4222 2 21.464 28.3781 48.8932 -101.85 -82.9849 23.4384 0 0 0
4223 2 27.4007 27.9564 48.907 131.532 9.56989 20.4218 0 0 0
4224 2 28.5993 28.0436 49.093 -131.532 -9.56989 -20.4218 0 0 0
4225 2 7.27613 6.52911 56.2677 -60.6078 103.357 -58.7656 0 0 0
4226 2 6.72387 7.47089 55.7323 60.6078 -103.357 58.7656 0 0 0
4227 2 14.174 6.42126 56.0668 -38.1877 127.029 -14.6515 0 0 0
4228 2 13.826 7.57874 55.9332 38.1877 -127.029 14.6515 0 0 0
4229 2 20.6265 6.86324 56.4599 81.9796 30.0175 -100.934 0 0 0
4230 2 21.3735 7.13676 55.5401 -81.9796 -30.0175 100.934 0 0 0
4231 2 27.6542 6.69003 56.3924 75.8974 68.0356 -86.1399 0 0 0
4232 2 28.3458 7.30997 55.6076 -75.8974 -68.0356 86.1399 0 0 0
4233 2 6.70651 13.9241 56.527 64.4183 16.6523 -115.682 0 0 0
4234 2 7.29349 14.0759 55.473 -64.4183 -16.6523 115.682 0 0 0
4235 2 13.6745 13.903 55.4957 71.4412 21.2923 110.689 0 0 0
4236 2 14.3255 14.097 56.5043 -71.4412 -21.2923 -110.689 0 0 0
4237 2 20.5427 14.0606 56.3961 100.368 -13.3031 -86.9406 0 0 0
4238 2 21.4573 13.9394 55.6039 -100.368 13.3031 86.9406 0 0 0
4239 2 27.9249 14.2026 55.4317 16.4892 -44.4611 124.742 0 0 0
4240 2 28.0751 13.7974 56.5683 -16.4892 44.4611 -124.742 0 0 0
4246 2 20.9435 20.4019 56.0937 12.4103 131.273 -20.5604 0 0 0
4241 2 6.80731 20.7 56.4925 42.2942 65.8523 -108.093 0 0 0
4242 2 7.19269 21.3 55.5075 -42.2942 -65.8523 108.093 0 0 0
4243 2 14.1366 20.9479 56.5902 -29.9799 11.4374 -129.537 0 0 0
4244 2 13.8634 21.0521 55.4098 29.9799 -11.4374 129.537 0 0 0
4245 2 21.0565 21.5981 55.9063 -12.4103 -131.273 20.5604 0 0 0
4247 2 28.2167 21.1008 55.4409 -47.5642 -22.1293 122.708 0 0 0
4248 2 27.7833 20.8992 56.5591 47.5642 22.1293 -122.708 0 0 0
4249 2 6.63409 27.6224 55.6948 80.3141 82.8865 66.9986 0 0 0
4250 2 7.36591 28.3776 56.3052 -80.3141 -82.8865 -66.9986 0 0 0
4251 2 13.866 27.4073 56.0194 29.4223 130.098 -4.26779 0 0 0
4252 2 14.134 28.5927 55.9806 -29.4223 -130.098 4.26779 0 0 0
4253 2 21.1332 28.0863 55.4131 -29.2464 -18.9424 128.822 0 0 0
4254 2 20.8668 27.9137 56.5869 29.2464 18.9424 -128.822 0 0 0
4255 2 28.0468 28.1775 56.5796 -10.2694 -38.9675 -127.222 0 0 0
4256 2 27.9532 27.8225 55.4204 10.2694 38.9675 127.222 0 0 0
4257 2 6.40245 6.9443 63.0974 131.158 12.225 -21.3868 0 0 0
4258 2 7.59755 7.0557 62.9026 -131.158 -12.225 21.3868 0 0 0
4259 2 13.4347 7.09107 62.7957 124.089 -19.9884 44.8527 0 0 0
4260 2 14.5653 6.90893 63.2043 -124.089 19.9884 -44.8527 0 0 0
4261 2 20.9351 7.14239 62.4125 14.2509 -31.2543 128.955 0 0 0
4262 2 21.0649 6.85761 63.5875 -14.2509 31.2543 -128.955 0 0 0
4263 2 28.1351 7.04714 63.5909 -29.657 -10.3468 -129.703 0 0 0
4264 2 27.8649 6.95286 62.4091 29.657 10.3468 129.703 0 0 0
4265 2 6.5967 13.7456 62.6228 88.5204 55.8421 82.7958 0 0 0
4266 2 7.4033 14.2544 63.3772 -88.5204 -55.8421 -82.7958 0 0 0
4267 2 13.4397 14.1373 62.8078 122.972 -30.1326 42.1807 0 0 0
4268 2 14.5603 13.8627 63.1922 -122.972 30.1326 -42.1807 0 0 0
4269 2 20.8208 14.5801 62.967 39.327 -127.319 7.25382 0 0 0
4270 2 21.1792 13.4199 63.033 -39.327 127.319 -7.25382 0 0 0
4271 2 28.1077 14.5952 63.0617 -23.6384 -130.64 -13.5525 0 0 0
4272 2 27.8923 13.4048 62.9383 23.6384 130.64 13.5525 0 0 0
4273 2 7.13399 20.5459 63.3815 -29.4091 99.6615 -83.7378 0 0 0
4275 2 13.7463 20.5309 63.292 55.6764 102.966 -64.0889 0 0 0
4277 2 20.6441 20.5178 63.1025 78.1199 105.832 -22.4982 0 0 0
4279 2 28.4323 20.5738 63.0329 -94.8917 93.5555 -7.23076 0 0 0
4274 2 6.86601 21.4541 62.6185 29.4091 -99.6615 83.7378 0 0 0
4276 2 14.2537 21.4691 62.708 -55.6764 -102.966 64.0889 0 0 0
4278 2 21.3559 21.4822 62.8975 -78.1199 -105.832 22.4982 0 0 0
4280 2 27.5677 21.4262 62.9671 94.8917 -93.5555 7.23076 0 0 0
4281 2 6.39201 28.0018 63.0035 133.449 -0.395813 -0.769961 0 0 0
4282 2 7.60799 27.9982 62.9965 -133.449 0.395813 0.769961 0 0 0
4284 2 14.21 27.4793 63.2333 -46.0887 114.296 -51.2016 0 0 0
4283 2 13.79 28.5207 62.7667 46.0887 -114.296 51.2016 0 0 0
4285 2 20.4088 28.1191 63.0768 129.775 -26.1525 -16.8495 0 0 0
4286 2 21.5912 27.8809 62.9232 -129.775 26.1525 16.8495 0 0 0
4287 2 27.6609 27.5267 63.1752 74.4292 103.878 -38.4583 0 0 0
4288 2 28.3391 28.4733 62.8248 -74.4292 -103.878 38.4583 0 0 0
4289 2 6.49474 7.24059 69.7623 110.901 -52.8081 52.1691 0 0 0
4290 2 7.50526 6.75941 70.2377 -110.901 52.8081 -52.1691 0 0 0
4291 2 13.4103 7.03063 70.145 129.427 -6.72263 -31.8225 0 0 0
4292 2 14.5897 6.96937 69.855 -129.427 6.72263 31.8225 0 0 0
4293 2 20.4411 7.2373 69.9683 122.67 -52.0849 6.96098 0 0 0
4294 2 21.5589 6.7627 70.0317 -122.67 52.0849 -6.96098 0 0 0
4295 2 27.4085 7.0463 69.867 129.822 -10.163 29.1939 0 0 0
4296 2 28.5915 6.9537 70.133 -129.822 10.163 -29.1939 0 0 0
4297 2 6.75688 13.4512 70.0968 53.3626 120.457 -21.2558 0 0 0
4298 2 7.24312 14.5488 69.9032 -53.3626 -120.457 21.2558 0 0 0
4299 2 13.6796 13.513 70.1726 70.3324 106.896 -37.895 0 0 0
4300 2 14.3204 14.487 69.8274 -70.3324 -106.896 37.895 0 0 0
4301 2 20.67 14.4946 70.127 72.4347 -108.563 -27.8695 0 0 0
4302 2 21.33 13.5054 69.873 -72.4347 108.563 27.8695 0 0 0
4303 2 27.4842 14.2528 69.8006 113.208 -55.4844 43.7588 0 0 0
4304 2 28.5158 13.7472 70.1994 -113.208 55.4844 -43.7588 0 0 0
4305 2 6.6934 20.527 70.2279 67.2968 103.823 -50.0136 0 0 0
4306 2 7.3066 21.473 69.7721 -67.2968 -103.823 50.0136 0 0 0
4307 2 14.5093 21.1707 70.2847 -111.797 -37.4775 -62.4991 0 0 0
4308 2 13.4907 20.8293 69.7153 111.797 37.4775 62.4991 0 0 0
4310 2 20.9507 21.0263 69.3946 10.823 -5.76887 132.887 0 0 0
4311 2 28.3269 21.2043 69.5299 -71.7625 -44.8489 103.189 0 0 0
4313 2 7.39903 27.6911 70.3391 -87.5836 67.8102 -74.4327 0 0 0
4314 2 6.60097 28.3089 69.6609 87.5836 -67.8102 74.4327 0 0 0
4316 2 14.4124 27.868 69.5732 -90.5107 28.9813 93.6869 0 0 0
4317 2 20.4156 28.0965 70.137 128.282 -21.1814 -30.0736 0 0 0
4318 2 21.5844 27.9035 69.863 -128.282 21.1814 30.0736 0 0 0
4320 2 27.7428 27.6454 69.5784 56.461 77.8404 92.533 0 0 0
4309 2 21.0493 20.9737 70.6054 -10.823 5.76887 -132.887 0 0 0
4312 2 27.6731 20.7957 70.4701 71.7625 44.8489 -103.189 0 0 0
4315 2 13.5876 28.132 70.4268 90.5107 -28.9813 -93.6869 0 0 0
4319 2 28.2572 28.3546 70.4216 -56.461 -77.8404 -92.533 0 0 0
4321 2 6.39772 7.08216 77.0132 132.196 -18.0335 -2.90589 0 0 0
4322 2 7.60228 6.91784 76.9868 -132.196 18.0335 2.90589 0 0 0
4324 2 14.145 7.24162 76.4612 -31.8173 -53.0338 118.256 0 0 0
4323 2 13.855 6.75838 77.5388 31.8173 53.0338 -118.256 0 0 0
4325 2 21.2889 7.47878 77.2387 -63.4073 -105.088 -52.3953 0 0 0
4326 2 20.7111 6.52122 76.7613 63.4073 105.088 52.3953 0 0 0
4327 2 27.4039 7.07764 76.9086 130.83 -17.042 20.0625 0 0 0
4328 2 28.5961 6.92236 77.0914 -130.83 17.042 -20.0625 0 0 0
4329 2 7.23796 14.541 77.1426 -52.2313 -118.748 -31.3072 0 0 0
4330 2 6.76204 13.459 76.8574 52.2313 118.748 31.3072 0 0 0
4331 2 13.4049 14.1234 76.9814 130.612 -27.0789 4.07889 0 0 0
4332 2 14.5951 13.8766 77.0186 -130.612 27.0789 -4.07889 0 0 0
4333 2 20.8385 13.9353 76.4174 35.4495 14.2038 127.871 0 0 0
4334 2 21.1615 14.0647 77.5826 -35.4495 -14.2038 -127.871 0 0 0
4335 2 27.8792 13.7305 76.4686 26.5098 59.1598 116.648 0 0 0
4336 2 28.1208 14.2695 77.5314 -26.5098 -59.1598 -116.648 0 0 0
4338 2 7.42516 20.6544 77.2636 -93.3186 75.8579 -57.8495 0 0 0
4342 2 20.7997 20.5154 77.3078 43.9626 106.363 -67.5541 0 0 0
4343 2 27.7499 20.4578 76.8855 54.9007 119.011 25.1327 0 0 0
4337 2 6.57484 21.3456 76.7364 93.3186 -75.8579 57.8495 0 0 0
4339 2 14.5736 20.7986 77.0116 -125.891 44.2077 -2.5397 0 0 0
4340 2 13.4264 21.2014 76.9884 125.891 -44.2077 2.5397 0 0 0
4341 2 21.2003 21.4846 76.6922 -43.9626 -106.363 67.5541 0 0 0
4344 2 28.2501 21.5422 77.1145 -54.9007 -119.011 -25.1327 0 0 0
4346 2 7.46183 27.7622 76.684 -101.368 52.1965 69.3495 0 0 0
4345 2 6.53817 28.2378 77.316 101.368 -52.1965 -69.3495 0 0 0
4347 2 13.602 27.5627 76.8585 87.3669 95.9754 31.0659 0 0 0
4348 2 14.398 28.4373 77.1415 -87.3669 -95.9754 -31.0659 0 0 0
4350 2 20.4311 28.2101 77.0435 124.867 -46.1148 -9.53801 0 0 0
4349 2 21.5689 27.7899 76.9565 -124.867 46.1148 9.53801 0 0 0
4351 2 27.8156 27.8342 76.4449 40.4743 36.3998 121.845 0 0 0
4352 2 28.1844 28.1658 77.5551 -40.4743 -36.3998 -121.845 0 0 0
4353 2 7.16769 6.94353 83.4183 -36.8071 12.3946 127.675 0 0 0
4354 2 6.83231 7.05647 84.5817 36.8071 -12.3946 -127.675 0 0 0
4355 2 13.4664 6.71748 84.0715 117.122 62.0101 -15.6991 0 0 0
4356 2 14.5336 7.28252 83.9285 -117.122 -62.0101 15.6991 0 0 0
4357 2 21.2886 6.52108 83.7612 -63.3485 105.118 52.4063 0 0 0
4358 2 20.7114 7.47892 84.2388 63.3485 -105.118 -52.4063 0 0 0
4359 2 27.4049 7.08798 83.9118 130.622 -19.3112 19.3493 0 0 0
4360 2 28.5951 6.91202 84.0882 -130.622 19.3112 -19.3493 0 0 0
4361 2 6.42411 14.1666 84.1013 126.405 -36.5593 -22.2393 0 0 0
4362 2 7.57589 13.8334 83.8987 -126.405 36.5593 22.2393 0 0 0
4363 2 13.4043 13.9743 83.8808 130.742 5.63464 26.1548 0 0 0
4364 2 14.5957 14.0257 84.1192 -130.742 -5.63464 -26.1548 0 0 0
4365 2 20.4125 14.0994 83.879 128.952 -21.8108 26.5499 0 0 0
4366 2 21.5875 13.9006 84.121 -128.952 21.8108 -26.5499 0 0 0
4367 2 27.4176 14.0568 84.1649 127.841 -12.4646 -36.2043 0 0 0
4368 2 28.5824 13.9432 83.8351 -127.841 12.4646 36.2043 0 0 0
4370 2 7.47892 20.6446 84.1182 -105.12 78.0161 -25.934 0 0 0
4371 2 13.5501 20.6488 83.7904 98.7479 77.0781 46.0127 0 0 0
4369 2 6.52108 21.3554 83.8818 105.12 -78.0161 25.934 0 0 0
4372 2 14.4499 21.3512 84.2096 -98.7479 -77.0781 -46.0127 0 0 0
4373 2 20.392 20.9983 83.9993 133.451 0.368256 0.153212 0 0 0
4374 2 21.608 21.0017 84.0007 -133.451 -0.368256 -0.153212 0 0 0
4375 2 28.3742 21.2275 83.5783 -82.1419 -49.9413 92.563 0 0 0
4376 2 27.6258 20.7725 84.4217 82.1419 49.9413 -92.563 0 0 0
4377 2 7.04235 27.609 83.5363 -9.2956 85.8217 101.772 0 0 0
4378 2 6.95765 28.391 84.4637 9.2956 -85.8217 -101.772 0 0 0
4379 2 14.243 28.0165 84.5571 -53.3286 -3.61704 -122.28 0 0 0
4380 2 13.757 27.9835 83.4429 53.3286 3.61704 122.28 0 0 0
4381 2 20.7878 28.1732 84.5428 46.5758 -38.0103 -119.144 0 0 0
4382 2 21.2122 27.8268 83.4572 -46.5758 38.0103 119.144 0 0 0
4383 2 27.5226 28.3188 84.2003 104.788 -69.9763 -43.9557 0 0 0
4384 2 28.4774 27.6812 83.7997 -104.788 69.9763 43.9557 0 0 0
4385 2 6.76446 6.82258 90.4683 51.6994 38.9432 116.704 0 0 0
4387 2 13.4601 6.81028 90.7946 118.502 41.6415 45.0836 0 0 0
4389 2 20.5239 7.13149 90.6455 104.502 -28.8603 77.819 0 0 0
4392 2 27.5309 6.61709 90.9456 102.97 84.047 11.94 0 0 0
4391 2 28.4691 7.38291 91.0544 -102.97 -84.047 -11.94 0 0 0
4394 2 7.30821 14.5007 90.8452 -67.6495 -109.905 33.9669 0 0 0
4395 2 13.4399 13.7653 91.0303 122.928 51.5153 -6.65006 0 0 0
4396 2 14.5601 14.2347 90.9697 -122.928 -51.5153 6.65006 0 0 0
4398 2 21.1331 13.4312 90.8313 -29.2097 124.839 37.0304 0 0 0
4399 2 27.4798 13.7724 90.7825 114.169 49.9548 47.7415 0 0 0
4408 2 27.9976 20.392 91.0027 0.524963 133.449 -0.597716 0 0 0
4401 2 6.49126 20.9766 90.6679 111.665 5.14192 72.8961 0 0 0
4404 2 14.5969 21.0131 90.885 -131.013 -2.88466 25.2314 0 0 0
4406 2 21.4704 21.1173 90.6331 -103.255 -25.7551 80.5255 0 0 0
4407 2 28.0024 21.608 90.9973 -0.524963 -133.449 0.597716 0 0 0
4410 2 7.56367 28.1624 90.8401 -123.721 -35.6557 35.0878 0 0 0
4412 2 13.7107 27.801 90.5037 63.5026 43.6787 108.945 0 0 0
4413 2 20.6464 28.2135 90.5538 77.6072 -46.8575 97.9328 0 0 0
4416 2 28.5427 28.1257 90.7565 -119.13 -27.5895 53.4445 0 0 0
4386 2 7.23554 7.17742 91.5317 -51.6994 -38.9432 -116.704 0 0 0
4388 2 14.5399 7.18972 91.2054 -118.502 -41.6415 -45.0836 0 0 0
4390 2 21.4761 6.86851 91.3545 -104.502 28.8603 -77.819 0 0 0
4393 2 6.69179 13.4993 91.1548 67.6495 109.905 -33.9669 0 0 0
4397 2 20.8669 14.5688 91.1687 29.2097 -124.839 -37.0304 0 0 0
4400 2 28.5202 14.2276 91.2175 -114.169 -49.9548 -47.7415 0 0 0
4402 2 7.50874 21.0234 91.3321 -111.665 -5.14192 -72.8961 0 0 0
4403 2 13.4031 20.9869 91.115 131.013 2.88466 -25.2314 0 0 0
4405 2 20.5296 20.8827 91.3669 103.255 25.7551 -80.5255 0 0 0
4409 2 6.43633 27.8376 91.1599 123.721 35.6557 -35.0878 0 0 0
4411 2 14.2893 28.199 91.4963 -63.5026 -43.6787 -108.945 0 0 0
4414 2 21.3536 27.7865 91.4462 -77.6072 46.8575 -97.9328 0 0 0
4415 2 27.4573 27.8743 91.2435 119.13 27.5895 -53.4445 0 0 0
1 1 0 1.43374e-19 99.174 0 0 0 5.92017e-17 9.97179e-17 0.0704716
3 1 3.3058 1.65886e-19 99.174 0 0 0 1.18334e-16 1.57821e-16 0.0704716
21 1 2.11638e-19 3.3058 99.174 0 0 0 2.20526e-16 8.90338e-17 0.0704716
23 1 3.3058 3.3058 99.174 0 0 0 4.63207e-17 -3.61454e-17 0.0704716
5 1 6.6116 1.67239e-19 99.174 0 0 0 2.11681e-16 1.89446e-16 0.0704716
25 1 6.6116 3.3058 99.174 0 0 0 8.87442e-18 -4.10943e-17 0.0704716
7 1 9.9174 4.88396e-20 99.174 0 0 0 -2.15358e-17 1.64285e-16 0.0704716
27 1 9.9174 3.3058 99.174 0 0 0 4.37245e-17 1.66412e-16 0.0704716
9 1 13.2232 0 99.174 0 0 0 7.91706e-17 -2.96009e-18 0.0704716
29 1 13.2232 3.3058 99.174 0 0 0 -2.22093e-16 1.25272e-16 0.0704716
11 1 16.529 1.79078e-19 99.174 0 0 0 9.91918e-17 2.02766e-16 0.0704716
13 1 19.8348 0 99.174 0 0 0 -2.21561e-16 1.77605e-17 0.0704716
31 1 16.529 3.3058 99.174 0 0 0 -2.26921e-17 -3.4781e-17 0.0704716
33 1 19.8348 3.3058 99.174 0 0 0 -6.82845e-17 3.06091e-16 0.0704716
15 1 23.1406 1.03599e-19 99.174 0 0 0 3.80267e-16 1.64285e-16 0.0704716
35 1 23.1406 3.3058 99.174 0 0 0 3.24326e-16 1.35886e-16 0.0704716
17 1 26.4464 3.55197e-20 99.174 0 0 0 1.81876e-17 1.59845e-16 0.0704716
37 1 26.4464 3.3058 99.174 0 0 0 2.54949e-17 1.09246e-16 0.0704716
19 1 29.7522 0 99.174 0 0 0 -4.38093e-16 -2.30332e-17 0.0704716
39 1 29.7522 3.3058 99.174 0 0 0 -4.07012e-16 3.39433e-16 0.0704716
41 1 0 6.6116 99.174 0 0 0 -1.52444e-16 3.96652e-16 0.0704716
43 1 3.3058 6.6116 99.174 0 0 0 6.87758e-17 3.06265e-16 0.0704716
45 1 6.6116 6.6116 99.174 0 0 0 2.70062e-16 5.73609e-16 0.0704716
47 1 9.9174 6.6116 99.174 0 0 0 1.34126e-17 1.46039e-16 0.0704716
49 1 13.2232 6.6116 99.174 0 0 0 6.34683e-17 4.34809e-16 0.0704716
51 1 16.529 6.6116 99.174 0 0 0 7.77716e-17 3.00194e-16 0.0704716
53 1 19.8348 6.6116 99.174 0 0 0 -1.63106e-16 4.05879e-16 0.0704716
55 1 23.1406 6.6116 99.174 0 0 0 2.05761e-16 3.07768e-16 0.0704716
57 1 26.4464 6.6116 99.174 0 0 0 1.41245e-16 2.23949e-16 0.0704716
59 1 29.7522 6.6116 99.174 0 0 0 -2.17566e-16 4.41671e-16 0.0704716
61 1 2.36798e-20 9.9174 99.174 0 0 0 -1.48004e-18 -1.91735e-16 0.0704716
63 1 3.3058 9.9174 99.174 0 0 0 1.69604e-16 -9.68275e-17 0.0704716
65 1 6.6116 9.9174 99.174 0 0 0 3.54285e-17 -3.23332e-16 0.0704716
67 1 9.9174 9.9174 99.174 0 0 0 -8.06511e-18 -3.09422e-17 0.0704716
69 1 13.2232 9.9174 99.174 0 0 0 -1.07974e-16 -1.60175e-16 0.0704716
71 1 16.529 9.9174 99.174 0 0 0 3.12196e-17 -2.44259e-16 0.0704716
73 1 19.8348 9.9174 99.174 0 0 0 -5.61839e-17 -2.45912e-16 0.0704716
75 1 23.1406 9.9174 99.174 0 0 0 1.7675e-16 -3.64969e-16 0.0704716
77 1 26.4464 9.9174 99.174 0 0 0 9.45e-17 -9.46358e-17 0.0704716
79 1 29.7522 9.9174 99.174 0 0 0 -2.98969e-16 -3.26517e-16 0.0704716
81 1 0 13.2232 99.174 0 0 0 -9.76828e-17 -7.80204e-17 0.0704716
83 1 3.3058 13.2232 99.174 0 0 0 -1.7668e-17 -2.0509e-16 0.0704716
85 1 6.6116 13.2232 99.174 0 0 0 4.75678e-16 -1.39575e-16 0.0704716
87 1 9.9174 13.2232 99.174 0 0 0 1.82054e-17 -1.17953e-16 0.0704716
89 1 13.2232 13.2232 99.174 0 0 0 -7.56385e-17 -1.96644e-16 0.0704716
91 1 16.529 13.2232 99.174 0 0 0 1.8848e-16 1.83385e-17 0.0704716
93 1 19.8348 13.2232 99.174 0 0 0 -2.91678e-16 -1.73217e-16 0.0704716
95 1 23.1406 13.2232 99.174 0 0 0 4.03214e-16 -1.69397e-17 0.0704716
97 1 26.4464 13.2232 99.174 0 0 0 2.29688e-16 -2.94737e-17 0.0704716
99 1 29.7522 13.2232 99.174 0 0 0 -3.5225e-16 -1.5578e-16 0.0704716
101 1 1.03599e-20 16.529 99.174 0 0 0 5.47616e-17 1.07916e-16 0.0704716
103 1 3.3058 16.529 99.174 0 0 0 1.09361e-16 2.66356e-16 0.0704716
121 1 4.43996e-20 19.8348 99.174 0 0 0 5.18015e-17 -1.71581e-16 0.0704716
123 1 3.3058 19.8348 99.174 0 0 0 1.36465e-16 -3.03831e-16 0.0704716
105 1 6.6116 16.529 99.174 0 0 0 1.80207e-16 1.18843e-16 0.0704716
125 1 6.6116 19.8348 99.174 0 0 0 1.66141e-16 -3.76295e-16 0.0704716
107 1 9.9174 16.529 99.174 0 0 0 -3.95524e-16 -1.01435e-16 0.0704716
127 1 9.9174 19.8348 99.174 0 0 0 -2.11929e-16 -1.8456e-16 0.0704716
109 1 13.2232 16.529 99.174 0 0 0 1.20988e-16 2.65425e-17 0.0704716