ITEM: TIMESTEP
0
ITEM: NUMBER OF ATOMS
580
ITEM: BOX BOUNDS pp pp ff
0.0000000000000000e+00 2.3140599999999999e+01
0.0000000000000000e+00 2.3140599999999999e+01
0.0000000000000000e+00 5.0000000000000000e+01
ITEM: ATOMS id type xs ys zs
1 1 6.39563e-22 9.16174e-21 7.04779e-07
2 1 0.0714286 0.0714286 0.0330574
3 1 0.142857 1.1779e-20 7.04779e-07
4 1 0.214286 0.0714286 0.0330574
15 1 8.82597e-21 0.142857 7.04779e-07
16 1 0.0714286 0.214286 0.0330574
17 1 0.142857 0.142857 7.04779e-07
18 1 0.214286 0.214286 0.0330574
99 1 1.74601e-20 2.84046e-20 0.0661157
100 1 0.0714286 0.0714286 0.0991741
101 1 0.142857 2.12775e-20 0.0661157
102 1 0.214286 0.0714286 0.0991741
113 1 1.72842e-20 0.142857 0.0661157
114 1 0.0714286 0.214286 0.0991741
115 1 0.142857 0.142857 0.0661157
116 1 0.214286 0.214286 0.0991741
5 1 0.285714 1.06807e-20 7.04779e-07
19 1 0.285714 0.142857 7.04779e-07
103 1 0.285714 4.26109e-20 0.0661157
117 1 0.285714 0.142857 0.0661157
29 1 2.55825e-21 0.285714 7.04779e-07
31 1 0.142857 0.285714 7.04779e-07
127 1 2.41435e-20 0.285714 0.0661157
129 1 0.142857 0.285714 0.0661157
33 1 0.285714 0.285714 7.04779e-07
131 1 0.285714 0.285714 0.0661157
6 1 0.357143 0.0714286 0.0330574
7 1 0.428571 1.13203e-20 7.04779e-07
20 1 0.357143 0.214286 0.0330574
21 1 0.428571 0.142857 7.04779e-07
104 1 0.357143 0.0714286 0.0991741
105 1 0.428571 4.40659e-20 0.0661157
118 1 0.357143 0.214286 0.0991741
119 1 0.428571 0.142857 0.0661157
8 1 0.5 0.0714286 0.0330574
9 1 0.571429 9.01784e-21 7.04779e-07
10 1 0.642857 0.0714286 0.0330574
22 1 0.5 0.214286 0.0330574
23 1 0.571429 0.142857 7.04779e-07
24 1 0.642857 0.214286 0.0330574
106 1 0.5 0.0714286 0.0991741
107 1 0.571429 2.65419e-20 0.0661157
108 1 0.642857 0.0714286 0.0991741
120 1 0.5 0.214286 0.0991741
121 1 0.571429 0.142857 0.0661157
122 1 0.642857 0.214286 0.0991741
35 1 0.428571 0.285714 7.04779e-07
133 1 0.428571 0.285714 0.0661157
37 1 0.571429 0.285714 7.04779e-07
135 1 0.571429 0.285714 0.0661157
11 1 0.714286 3.96529e-21 7.04779e-07
25 1 0.714286 0.142857 7.04779e-07
109 1 0.714286 5.02537e-20 0.0661157
123 1 0.714286 0.142857 0.0661157
12 1 0.785714 0.0714286 0.0330574
13 1 0.857143 4.1032e-21 7.04779e-07
14 1 0.928571 0.0714286 0.0330574
26 1 0.785714 0.214286 0.0330574
27 1 0.857143 0.142857 7.04779e-07
28 1 0.928571 0.214286 0.0330574
110 1 0.785714 0.0714286 0.0991741
111 1 0.857143 4.88866e-21 0.0661157
112 1 0.928571 0.0714286 0.0991741
124 1 0.785714 0.214286 0.0991741
125 1 0.857143 0.142857 0.0661157
126 1 0.928571 0.214286 0.0991741
39 1 0.714286 0.285714 7.04779e-07
137 1 0.714286 0.285714 0.0661157
41 1 0.857143 0.285714 7.04779e-07
139 1 0.857143 0.285714 0.0661157
30 1 0.0714286 0.357143 0.0330574
32 1 0.214286 0.357143 0.0330574
43 1 0 0.428571 7.04779e-07
45 1 0.142857 0.428571 7.04779e-07
128 1 0.0714286 0.357143 0.0991741
130 1 0.214286 0.357143 0.0991741
141 1 3.31134e-20 0.428571 0.0661157
143 1 0.142857 0.428571 0.0661157
47 1 0.285714 0.428571 7.04779e-07
145 1 0.285714 0.428571 0.0661157
44 1 0.0714286 0.5 0.0330574
46 1 0.214286 0.5 0.0330574
57 1 8.18641e-21 0.571429 7.04779e-07
58 1 0.0714286 0.642857 0.0330574
59 1 0.142857 0.571429 7.04779e-07
60 1 0.214286 0.642857 0.0330574
142 1 0.0714286 0.5 0.0991741
144 1 0.214286 0.5 0.0991741
155 1 0 0.571429 0.0661157
156 1 0.0714286 0.642857 0.0991741
157 1 0.142857 0.571429 0.0661157
158 1 0.214286 0.642857 0.0991741
61 1 0.285714 0.571429 7.04779e-07
159 1 0.285714 0.571429 0.0661157
34 1 0.357143 0.357143 0.0330574
49 1 0.428571 0.428571 7.04779e-07
132 1 0.357143 0.357143 0.0991741
147 1 0.428571 0.428571 0.0661157
36 1 0.5 0.357143 0.0330574
38 1 0.642857 0.357143 0.0330574
51 1 0.571429 0.428571 7.04779e-07
134 1 0.5 0.357143 0.0991741
136 1 0.642857 0.357143 0.0991741
149 1 0.571429 0.428571 0.0661157
48 1 0.357143 0.5 0.0330574
62 1 0.357143 0.642857 0.0330574
63 1 0.428571 0.571429 7.04779e-07
146 1 0.357143 0.5 0.0991741
160 1 0.357143 0.642857 0.0991741
161 1 0.428571 0.571429 0.0661157
50 1 0.5 0.5 0.0330574
52 1 0.642857 0.5 0.0330574
64 1 0.5 0.642857 0.0330574
65 1 0.571429 0.571429 7.04779e-07
66 1 0.642857 0.642857 0.0330574
148 1 0.5 0.5 0.0991741
150 1 0.642857 0.5 0.0991741
162 1 0.5 0.642857 0.0991741
163 1 0.571429 0.571429 0.0661157
164 1 0.642857 0.642857 0.0991741
53 1 0.714286 0.428571 7.04779e-07
151 1 0.714286 0.428571 0.0661157
40 1 0.785714 0.357143 0.0330574
42 1 0.928571 0.357143 0.0330574
55 1 0.857143 0.428571 7.04779e-07
138 1 0.785714 0.357143 0.0991741
140 1 0.928571 0.357143 0.0991741
153 1 0.857143 0.428571 0.0661157
67 1 0.714286 0.571429 7.04779e-07
165 1 0.714286 0.571429 0.0661157
54 1 0.785714 0.5 0.0330574
56 1 0.928571 0.5 0.0330574
68 1 0.785714 0.642857 0.0330574
69 1 0.857143 0.571429 7.04779e-07
70 1 0.928571 0.642857 0.0330574
152 1 0.785714 0.5 0.0991741
154 1 0.928571 0.5 0.0991741
166 1 0.785714 0.642857 0.0991741
167 1 0.857143 0.571429 0.0661157
168 1 0.928571 0.642857 0.0991741
71 1 1.72682e-21 0.714286 7.04779e-07
73 1 0.142857 0.714286 7.04779e-07
169 1 2.35359e-20 0.714286 0.0661157
171 1 0.142857 0.714286 0.0661157
75 1 0.285714 0.714286 7.04779e-07
173 1 0.285714 0.714286 0.0661157
72 1 0.0714286 0.785714 0.0330574
74 1 0.214286 0.785714 0.0330574
85 1 7.54685e-21 0.857143 7.04779e-07
86 1 0.0714286 0.928571 0.0330574
87 1 0.142857 0.857143 7.04779e-07
88 1 0.214286 0.928571 0.0330574
170 1 0.0714286 0.785714 0.0991741
172 1 0.214286 0.785714 0.0991741
183 1 0 0.857143 0.0661157
184 1 0.0714286 0.928571 0.0991741
185 1 0.142857 0.857143 0.0661157
186 1 0.214286 0.928571 0.0991741
89 1 0.285714 0.857143 7.04779e-07
187 1 0.285714 0.857143 0.0661157
77 1 0.428571 0.714286 7.04779e-07
175 1 0.428571 0.714286 0.0661157
79 1 0.571429 0.714286 7.04779e-07
177 1 0.571429 0.714286 0.0661157
76 1 0.357143 0.785714 0.0330574
90 1 0.357143 0.928571 0.0330574
91 1 0.428571 0.857143 7.04779e-07
174 1 0.357143 0.785714 0.0991741
188 1 0.357143 0.928571 0.0991741
189 1 0.428571 0.857143 0.0661157
78 1 0.5 0.785714 0.0330574
80 1 0.642857 0.785714 0.0330574
92 1 0.5 0.928571 0.0330574
93 1 0.571429 0.857143 7.04779e-07
94 1 0.642857 0.928571 0.0330574
176 1 0.5 0.785714 0.0991741
178 1 0.642857 0.785714 0.0991741
190 1 0.5 0.928571 0.0991741
191 1 0.571429 0.857143 0.0661157
192 1 0.642857 0.928571 0.0991741
81 1 0.714286 0.714286 7.04779e-07
179 1 0.714286 0.714286 0.0661157
83 1 0.857143 0.714286 7.04779e-07
181 1 0.857143 0.714286 0.0661157
95 1 0.714286 0.857143 7.04779e-07
193 1 0.714286 0.857143 0.0661157
82 1 0.785714 0.785714 0.0330574
84 1 0.928571 0.785714 0.0330574
96 1 0.785714 0.928571 0.0330574
97 1 0.857143 0.857143 7.04779e-07
98 1 0.928571 0.928571 0.0330574
180 1 0.785714 0.785714 0.0991741
182 1 0.928571 0.785714 0.0991741
194 1 0.785714 0.928571 0.0991741
195 1 0.857143 0.857143 0.0661157
196 1 0.928571 0.928571 0.0991741
197 1 7.73871e-21 0 0.132232
198 1 0.0714286 0.0714286 0.16529
199 1 0.142857 0 0.132232
200 1 0.214286 0.0714286 0.16529
211 1 2.15533e-20 0.142857 0.132232
212 1 0.0714286 0.214286 0.16529
213 1 0.142857 0.142857 0.132232
214 1 0.214286 0.214286 0.16529
295 1 1.34308e-21 0 0.198348
297 1 0.142857 0 0.198348
309 1 1.06327e-20 0.142857 0.198348
311 1 0.142857 0.142857 0.198348
201 1 0.285714 1.58612e-20 0.132232
215 1 0.285714 0.142857 0.132232
299 1 0.285714 0 0.198348
313 1 0.285714 0.142857 0.198348
225 1 3.35131e-20 0.285714 0.132232
227 1 0.142857 0.285714 0.132232
323 1 0 0.285714 0.198348
325 1 0.142857 0.285714 0.198348
229 1 0.285714 0.285714 0.132232
327 1 0.285714 0.285714 0.198348
296 1 0.0714286 0.0714286 0.231406
298 1 0.214286 0.0714286 0.231406
310 1 0.0714286 0.214286 0.231406
312 1 0.214286 0.214286 0.231406
202 1 0.357143 0.0714286 0.16529
203 1 0.428571 0 0.132232
216 1 0.357143 0.214286 0.16529
217 1 0.428571 0.142857 0.132232
301 1 0.428571 4.6848e-21 0.198348
315 1 0.428571 0.142857 0.198348
204 1 0.5 0.0714286 0.16529
205 1 0.571429 1.12883e-20 0.132232
206 1 0.642857 0.0714286 0.16529
218 1 0.5 0.214286 0.16529
219 1 0.571429 0.142857 0.132232
220 1 0.642857 0.214286 0.16529
303 1 0.571429 0 0.198348
317 1 0.571429 0.142857 0.198348
231 1 0.428571 0.285714 0.132232
329 1 0.428571 0.285714 0.198348
233 1 0.571429 0.285714 0.132232
331 1 0.571429 0.285714 0.198348
300 1 0.357143 0.0714286 0.231406
314 1 0.357143 0.214286 0.231406
302 1 0.5 0.0714286 0.231406
304 1 0.642857 0.0714286 0.231406
316 1 0.5 0.214286 0.231406
318 1 0.642857 0.214286 0.231406
207 1 0.714286 0 0.132232
221 1 0.714286 0.142857 0.132232
305 1 0.714286 1.55094e-21 0.198348
319 1 0.714286 0.142857 0.198348
208 1 0.785714 0.0714286 0.16529
209 1 0.857143 1.27993e-20 0.132232
210 1 0.928571 0.0714286 0.16529
222 1 0.785714 0.214286 0.16529
223 1 0.857143 0.142857 0.132232
224 1 0.928571 0.214286 0.16529
307 1 0.857143 0 0.198348
321 1 0.857143 0.142857 0.198348
235 1 0.714286 0.285714 0.132232
333 1 0.714286 0.285714 0.198348
237 1 0.857143 0.285714 0.132232
335 1 0.857143 0.285714 0.198348
306 1 0.785714 0.0714286 0.231406
308 1 0.928571 0.0714286 0.231406
320 1 0.785714 0.214286 0.231406
322 1 0.928571 0.214286 0.231406
226 1 0.0714286 0.357143 0.16529
228 1 0.214286 0.357143 0.16529
239 1 6.26772e-21 0.428571 0.132232
241 1 0.142857 0.428571 0.132232
337 1 9.30564e-21 0.428571 0.198348
339 1 0.142857 0.428571 0.198348
243 1 0.285714 0.428571 0.132232
341 1 0.285714 0.428571 0.198348
240 1 0.0714286 0.5 0.16529
242 1 0.214286 0.5 0.16529
253 1 1.69804e-20 0.571429 0.132232
254 1 0.0714286 0.642857 0.16529
255 1 0.142857 0.571429 0.132232
256 1 0.214286 0.642857 0.16529
351 1 0 0.571429 0.198348
353 1 0.142857 0.571429 0.198348
257 1 0.285714 0.571429 0.132232
355 1 0.285714 0.571429 0.198348
324 1 0.0714286 0.357143 0.231406
326 1 0.214286 0.357143 0.231406
338 1 0.0714286 0.5 0.231406
340 1 0.214286 0.5 0.231406
352 1 0.0714286 0.642857 0.231406
354 1 0.214286 0.642857 0.231406
230 1 0.357143 0.357143 0.16529
245 1 0.428571 0.428571 0.132232
343 1 0.428571 0.428571 0.198348
232 1 0.5 0.357143 0.16529
234 1 0.642857 0.357143 0.16529
247 1 0.571429 0.428571 0.132232
345 1 0.571429 0.428571 0.198348
244 1 0.357143 0.5 0.16529
258 1 0.357143 0.642857 0.16529
259 1 0.428571 0.571429 0.132232
357 1 0.428571 0.571429 0.198348
246 1 0.5 0.5 0.16529
248 1 0.642857 0.5 0.16529
260 1 0.5 0.642857 0.16529
261 1 0.571429 0.571429 0.132232
262 1 0.642857 0.642857 0.16529
359 1 0.571429 0.571429 0.198348
328 1 0.357143 0.357143 0.231406
330 1 0.5 0.357143 0.231406
332 1 0.642857 0.357143 0.231406
342 1 0.357143 0.5 0.231406
356 1 0.357143 0.642857 0.231406
344 1 0.5 0.5 0.231406
346 1 0.642857 0.5 0.231406
358 1 0.5 0.642857 0.231406
360 1 0.642857 0.642857 0.231406
249 1 0.714286 0.428571 0.132232
347 1 0.714286 0.428571 0.198348
236 1 0.785714 0.357143 0.16529
238 1 0.928571 0.357143 0.16529
251 1 0.857143 0.428571 0.132232
349 1 0.857143 0.428571 0.198348
263 1 0.714286 0.571429 0.132232
361 1 0.714286 0.571429 0.198348
250 1 0.785714 0.5 0.16529
252 1 0.928571 0.5 0.16529
264 1 0.785714 0.642857 0.16529
265 1 0.857143 0.571429 0.132232
266 1 0.928571 0.642857 0.16529
363 1 0.857143 0.571429 0.198348
334 1 0.785714 0.357143 0.231406
336 1 0.928571 0.357143 0.231406
348 1 0.785714 0.5 0.231406
350 1 0.928571 0.5 0.231406
362 1 0.785714 0.642857 0.231406
364 1 0.928571 0.642857 0.231406
267 1 0 0.714286 0.132232
269 1 0.142857 0.714286 0.132232
365 1 4.73277e-21 0.714286 0.198348
367 1 0.142857 0.714286 0.198348
271 1 0.285714 0.714286 0.132232
369 1 0.285714 0.714286 0.198348
268 1 0.0714286 0.785714 0.16529
270 1 0.214286 0.785714 0.16529
281 1 1.27913e-20 0.857143 0.132232
282 1 0.0714286 0.928571 0.16529
283 1 0.142857 0.857143 0.132232
284 1 0.214286 0.928571 0.16529
379 1 0 0.857143 0.198348
381 1 0.142857 0.857143 0.198348
285 1 0.285714 0.857143 0.132232
383 1 0.285714 0.857143 0.198348
366 1 0.0714286 0.785714 0.231406
368 1 0.214286 0.785714 0.231406
380 1 0.0714286 0.928571 0.231406
382 1 0.214286 0.928571 0.231406
273 1 0.428571 0.714286 0.132232
371 1 0.428571 0.714286 0.198348
275 1 0.571429 0.714286 0.132232
373 1 0.571429 0.714286 0.198348
272 1 0.357143 0.785714 0.16529
286 1 0.357143 0.928571 0.16529
287 1 0.428571 0.857143 0.132232
385 1 0.428571 0.857143 0.198348
274 1 0.5 0.785714 0.16529
276 1 0.642857 0.785714 0.16529
288 1 0.5 0.928571 0.16529
289 1 0.571429 0.857143 0.132232
290 1 0.642857 0.928571 0.16529
387 1 0.571429 0.857143 0.198348
370 1 0.357143 0.785714 0.231406
384 1 0.357143 0.928571 0.231406
372 1 0.5 0.785714 0.231406
374 1 0.642857 0.785714 0.231406
386 1 0.5 0.928571 0.231406
388 1 0.642857 0.928571 0.231406
277 1 0.714286 0.714286 0.132232
375 1 0.714286 0.714286 0.198348
279 1 0.857143 0.714286 0.132232
377 1 0.857143 0.714286 0.198348
291 1 0.714286 0.857143 0.132232
389 1 0.714286 0.857143 0.198348
278 1 0.785714 0.785714 0.16529
280 1 0.928571 0.785714 0.16529
292 1 0.785714 0.928571 0.16529
293 1 0.857143 0.857143 0.132232
294 1 0.928571 0.928571 0.16529
391 1 0.857143 0.857143 0.198348
376 1 0.785714 0.785714 0.231406
378 1 0.928571 0.785714 0.231406
390 1 0.785714 0.928571 0.231406
392 1 0.928571 0.928571 0.231406
393 1 1.52856e-20 2.07858e-20 0.264465
394 1 0.0714286 0.0714286 0.297521
395 1 0.142857 1.82276e-21 0.264465
396 1 0.214286 0.0714286 0.297521
407 1 4.28507e-21 0.142857 0.264465
408 1 0.0714286 0.214286 0.297521
409 1 0.142857 0.142857 0.264465
410 1 0.214286 0.214286 0.297521
397 1 0.285714 1.164e-20 0.264465
411 1 0.285714 0.142857 0.264465
421 1 7.29102e-21 0.285714 0.264465
423 1 0.142857 0.285714 0.264465
425 1 0.285714 0.285714 0.264465
398 1 0.357143 0.0714286 0.297521
399 1 0.428571 0 0.264465
412 1 0.357143 0.214286 0.297521
413 1 0.428571 0.142857 0.264465
400 1 0.5 0.0714286 0.297521
401 1 0.571429 0 0.264465
402 1 0.642857 0.0714286 0.297521
414 1 0.5 0.214286 0.297521
415 1 0.571429 0.142857 0.264465
416 1 0.642857 0.214286 0.297521
427 1 0.428571 0.285714 0.264465
429 1 0.571429 0.285714 0.264465
403 1 0.714286 9.14575e-21 0.264465
417 1 0.714286 0.142857 0.264465
404 1 0.785714 0.0714286 0.297521
405 1 0.857143 1.15481e-20 0.264465
406 1 0.928571 0.0714286 0.297521
418 1 0.785714 0.214286 0.297521
419 1 0.857143 0.142857 0.264465
420 1 0.928571 0.214286 0.297521
431 1 0.714286 0.285714 0.264465
433 1 0.857143 0.285714 0.264465
422 1 0.0714286 0.357143 0.297521
424 1 0.214286 0.357143 0.297521
435 1 0 0.428571 0.264465
437 1 0.142857 0.428571 0.264465
439 1 0.285714 0.428571 0.264465
436 1 0.0714286 0.5 0.297521
438 1 0.214286 0.5 0.297521
449 1 1.06167e-20 0.571429 0.264465
450 1 0.0714286 0.642857 0.297521
451 1 0.142857 0.571429 0.264465
452 1 0.214286 0.642857 0.297521
453 1 0.285714 0.571429 0.264465
426 1 0.357143 0.357143 0.297521
441 1 0.428571 0.428571 0.264465
428 1 0.5 0.357143 0.297521
430 1 0.642857 0.357143 0.297521
443 1 0.571429 0.428571 0.264465
440 1 0.357143 0.5 0.297521
454 1 0.357143 0.642857 0.297521
455 1 0.428571 0.571429 0.264465
442 1 0.5 0.5 0.297521
444 1 0.642857 0.5 0.297521
456 1 0.5 0.642857 0.297521
457 1 0.571429 0.571429 0.264465
458 1 0.642857 0.642857 0.297521
445 1 0.714286 0.428571 0.264465
432 1 0.785714 0.357143 0.297521
434 1 0.928571 0.357143 0.297521
447 1 0.857143 0.428571 0.264465
459 1 0.714286 0.571429 0.264465
446 1 0.785714 0.5 0.297521
448 1 0.928571 0.5 0.297521
460 1 0.785714 0.642857 0.297521
461 1 0.857143 0.571429 0.264465
462 1 0.928571 0.642857 0.297521
463 1 0 0.714286 0.264465
465 1 0.142857 0.714286 0.264465
467 1 0.285714 0.714286 0.264465
464 1 0.0714286 0.785714 0.297521
466 1 0.214286 0.785714 0.297521
477 1 1.44541e-20 0.857143 0.264465
478 1 0.0714286 0.928571 0.297521
479 1 0.142857 0.857143 0.264465
480 1 0.214286 0.928571 0.297521
481 1 0.285714 0.857143 0.264465
469 1 0.428571 0.714286 0.264465
471 1 0.571429 0.714286 0.264465
468 1 0.357143 0.785714 0.297521
482 1 0.357143 0.928571 0.297521
483 1 0.428571 0.857143 0.264465
470 1 0.5 0.785714 0.297521
472 1 0.642857 0.785714 0.297521
484 1 0.5 0.928571 0.297521
485 1 0.571429 0.857143 0.264465
486 1 0.642857 0.928571 0.297521
473 1 0.714286 0.714286 0.264465
475 1 0.857143 0.714286 0.264465
487 1 0.714286 0.857143 0.264465
474 1 0.785714 0.785714 0.297521
476 1 0.928571 0.785714 0.297521
488 1 0.785714 0.928571 0.297521
489 1 0.857143 0.857143 0.264465
490 1 0.928571 0.928571 0.297521
492 2 0.0240093 0.00784633 0.416652
493 2 0.307425 0.0121691 0.409467
498 2 0.0259463 0.299922 0.418501
499 2 0.279264 0.290232 0.420063
500 2 0.325733 0.314766 0.419937
496 2 0.621222 0.0206581 0.419733
501 2 0.59219 0.279587 0.419456
502 2 0.617805 0.32541 0.420544
497 2 0.974054 0.305075 0.421499
503 2 0.00208067 0.630793 0.422099
505 2 0.279727 0.59192 0.420402
506 2 0.32527 0.618075 0.419598
507 2 0.612988 0.589905 0.410759
508 2 0.597006 0.620089 0.429241
504 2 0.997919 0.579201 0.417901
494 2 0.297572 0.987831 0.430533
495 2 0.588773 0.979342 0.420267
491 2 0.975991 0.992154 0.423348
511 2 0.286547 0.0164693 0.554061
515 2 0.000748928 0.328719 0.559307
517 2 0.320998 0.285157 0.563185
518 2 0.283999 0.319841 0.556815
520 2 0.596488 0.29044 0.54994
514 2 0.629487 0.00839158 0.557922
519 2 0.613507 0.314557 0.57006
509 2 0.979615 0.0164315 0.558988
516 2 0.999251 0.276278 0.560693
524 2 0.322097 0.597331 0.55272
521 2 0.00615194 0.625374 0.567129
523 2 0.2829 0.612664 0.56728
525 2 0.578767 0.604921 0.5593
526 2 0.631228 0.605074 0.5607
522 2 0.993848 0.58462 0.552871
510 2 0.0203851 0.983568 0.561012
512 2 0.31845 0.983531 0.565939
513 2 0.580507 0.991608 0.562078
530 2 0.326893 0.00947738 0.701079
534 2 0.0262481 0.303146 0.700451
535 2 0.306229 0.281133 0.706863
536 2 0.298768 0.323865 0.693137
531 2 0.59713 0.00896342 0.689165
537 2 0.585756 0.294059 0.707301
538 2 0.624238 0.310938 0.692699
527 2 0.978257 0.00967181 0.694846
533 2 0.973752 0.301851 0.699549
540 2 0.00611896 0.579453 0.699709
541 2 0.307733 0.615766 0.689176
542 2 0.297264 0.594229 0.710824
543 2 0.614591 0.588588 0.691605
544 2 0.595403 0.621406 0.708395
539 2 0.993881 0.630541 0.700291
528 2 0.0217434 0.990328 0.705154
529 2 0.278104 0.990523 0.698921
532 2 0.612865 0.991037 0.710835
546 2 0.00425278 0.0257035 0.838425
548 2 0.302401 0.0108749 0.828931
552 2 0.0260716 0.302794 0.838499
553 2 0.323146 0.311718 0.846192
554 2 0.281851 0.293279 0.833808
549 2 0.579702 0.00503942 0.837682
555 2 0.581708 0.29746 0.845124
556 2 0.628286 0.307537 0.834876
551 2 0.973928 0.302203 0.841501
558 2 0.00669629 0.583529 0.846288
559 2 0.299441 0.582942 0.833545
560 2 0.305557 0.627053 0.846455
561 2 0.578815 0.605572 0.839018
562 2 0.631179 0.604422 0.840982
557 2 0.993304 0.626466 0.833712
547 2 0.302596 0.989125 0.851069
550 2 0.630292 0.994961 0.842318
545 2 0.995747 0.974297 0.841575
564 2 0.0225918 0.00852969 0.984792
566 2 0.32877 0.000394079 0.979942
570 2 0.00752562 0.322199 0.987253
571 2 0.316252 0.283089 0.985163
572 2 0.288745 0.321908 0.974837
567 2 0.579507 0.000827736 0.982923
573 2 0.581676 0.293337 0.976341
574 2 0.628318 0.311661 0.983659
569 2 0.992474 0.282799 0.972747
576 2 0.0246965 0.601379 0.983797
577 2 0.291073 0.58163 0.978284
578 2 0.313924 0.628365 0.981716
579 2 0.57877 0.603426 0.97994
580 2 0.631224 0.606568 0.98006
575 2 0.975303 0.608616 0.976203
565 2 0.276228 0.999606 0.980058
568 2 0.630487 0.999172 0.977077
563 2 0.977408 0.99147 0.975208
ITEM: TIMESTEP
1
ITEM: NUMBER OF ATOMS
580
ITEM: BOX BOUNDS pp pp ff
0.0000000000000000e+00 2.3140599999999999e+01
0.0000000000000000e+00 2.3140599999999999e+01
0.0000000000000000e+00 5.0000000000000000e+01
ITEM: ATOMS id type xs ys zs
1 1 3.58163e-21 1.18562e-20 2.81883e-06
2 1 0.0714286 0.0714286 0.0330556
3 1 0.142857 2.37164e-20 2.81883e-06
4 1 0.214286 0.0714286 0.0330556
15 1 1.56057e-20 0.142857 2.81883e-06
16 1 0.0714286 0.214286 0.0330556
17 1 0.142857 0.142857 2.81883e-06
18 1 0.214286 0.214286 0.0330556
99 1 6.61597e-19 -2.35749e-19 0.0661148
100 1 0.0714286 0.0714286 0.0991742
101 1 0.142857 -8.71802e-19 0.0661148
102 1 0.214286 0.0714286 0.0991742
113 1 7.5942e-19 0.142857 0.0661148
114 1 0.0714286 0.214286 0.0991742
115 1 0.142857 0.142857 0.0661148
116 1 0.214286 0.214286 0.0991742
5 1 0.285714 2.8845e-20 2.81883e-06
19 1 0.285714 0.142857 2.81883e-06
103 1 0.285714 -1.17684e-18 0.0661148
117 1 0.285714 0.142857 0.0661148
29 1 9.65767e-21 0.285714 2.81883e-06
31 1 0.142857 0.285714 2.81883e-06
127 1 3.17007e-19 0.285714 0.0661148
129 1 0.142857 0.285714 0.0661148
33 1 0.285714 0.285714 2.81883e-06
131 1 0.285714 0.285714 0.0661148
6 1 0.357143 0.0714286 0.0330556
7 1 0.428571 3.12754e-20 2.81883e-06
20 1 0.357143 0.214286 0.0330556
21 1 0.428571 0.142857 2.81883e-06
104 1 0.357143 0.0714286 0.0991742
105 1 0.428571 3.76712e-19 0.0661148
118 1 0.357143 0.214286 0.0991742
119 1 0.428571 0.142857 0.0661148
8 1 0.5 0.0714286 0.0330556
9 1 0.571429 2.50076e-20 2.81883e-06
10 1 0.642857 0.0714286 0.0330556
22 1 0.5 0.214286 0.0330556
23 1 0.571429 0.142857 2.81883e-06
24 1 0.642857 0.214286 0.0330556
106 1 0.5 0.0714286 0.0991742
107 1 0.571429 8.68788e-19 0.0661148
108 1 0.642857 0.0714286 0.0991742
120 1 0.5 0.214286 0.0991742
121 1 0.571429 0.142857 0.0661148
122 1 0.642857 0.214286 0.0991742
35 1 0.428571 0.285714 2.81883e-06
133 1 0.428571 0.285714 0.0661148
37 1 0.571429 0.285714 2.81883e-06
135 1 0.571429 0.285714 0.0661148
11 1 0.714286 1.44545e-20 2.81883e-06
25 1 0.714286 0.142857 2.81883e-06
109 1 0.714286 -3.29384e-20 0.0661148
123 1 0.714286 0.142857 0.0661148
12 1 0.785714 0.0714286 0.0330556
13 1 0.857143 1.73967e-20 2.81883e-06
14 1 0.928571 0.0714286 0.0330556
26 1 0.785714 0.214286 0.0330556
27 1 0.857143 0.142857 2.81883e-06
28 1 0.928571 0.214286 0.0330556
110 1 0.785714 0.0714286 0.0991742
111 1 0.857143 -1.248e-20 0.0661148
112 1 0.928571 0.0714286 0.0991742
124 1 0.785714 0.214286 0.0991742
125 1 0.857143 0.142857 0.0661148
126 1 0.928571 0.214286 0.0991742
39 1 0.714286 0.285714 2.81883e-06
137 1 0.714286 0.285714 0.0661148
41 1 0.857143 0.285714 2.81883e-06
139 1 0.857143 0.285714 0.0661148
30 1 0.0714286 0.357143 0.0330556
32 1 0.214286 0.357143 0.0330556
43 1 1.27919e-21 0.428571 2.81883e-06
45 1 0.142857 0.428571 2.81883e-06
128 1 0.0714286 0.357143 0.0991742
130 1 0.214286 0.357143 0.0991742
141 1 -1.57814e-20 0.428571 0.0661148
143 1 0.142857 0.428571 0.0661148
47 1 0.285714 0.428571 2.81883e-06
145 1 0.285714 0.428571 0.0661148
44 1 0.0714286 0.5 0.0330556
46 1 0.214286 0.5 0.0330556
57 1 2.26412e-20 0.571429 2.81883e-06
58 1 0.0714286 0.642857 0.0330556
59 1 0.142857 0.571429 2.81883e-06
60 1 0.214286 0.642857 0.0330556
142 1 0.0714286 0.5 0.0991742
144 1 0.214286 0.5 0.0991742
155 1 7.00974e-20 0.571429 0.0661148
156 1 0.0714286 0.642857 0.0991742
157 1 0.142857 0.571429 0.0661148
158 1 0.214286 0.642857 0.0991742
61 1 0.285714 0.571429 2.81883e-06
159 1 0.285714 0.571429 0.0661148
34 1 0.357143 0.357143 0.0330556
49 1 0.428571 0.428571 2.81883e-06
132 1 0.357143 0.357143 0.0991742
147 1 0.428571 0.428571 0.0661148
36 1 0.5 0.357143 0.0330556
38 1 0.642857 0.357143 0.0330556
51 1 0.571429 0.428571 2.81883e-06
134 1 0.5 0.357143 0.0991742
136 1 0.642857 0.357143 0.0991742
149 1 0.571429 0.428571 0.0661148
48 1 0.357143 0.5 0.0330556
62 1 0.357143 0.642857 0.0330556
63 1 0.428571 0.571429 2.81883e-06
146 1 0.357143 0.5 0.0991742
160 1 0.357143 0.642857 0.0991742
161 1 0.428571 0.571429 0.0661148
50 1 0.5 0.5 0.0330556
52 1 0.642857 0.5 0.0330556
64 1 0.5 0.642857 0.0330556
65 1 0.571429 0.571429 2.81883e-06
66 1 0.642857 0.642857 0.0330556
148 1 0.5 0.5 0.0991742
150 1 0.642857 0.5 0.0991742
162 1 0.5 0.642857 0.0991742
163 1 0.571429 0.571429 0.0661148
164 1 0.642857 0.642857 0.0991742
53 1 0.714286 0.428571 2.81883e-06
151 1 0.714286 0.428571 0.0661148
40 1 0.785714 0.357143 0.0330556
42 1 0.928571 0.357143 0.0330556
55 1 0.857143 0.428571 2.81883e-06
138 1 0.785714 0.357143 0.0991742
140 1 0.928571 0.357143 0.0991742
153 1 0.857143 0.428571 0.0661148
67 1 0.714286 0.571429 2.81883e-06
165 1 0.714286 0.571429 0.0661148
54 1 0.785714 0.5 0.0330556
56 1 0.928571 0.5 0.0330556
68 1 0.785714 0.642857 0.0330556
69 1 0.857143 0.571429 2.81883e-06
70 1 0.928571 0.642857 0.0330556
152 1 0.785714 0.5 0.0991742
154 1 0.928571 0.5 0.0991742
166 1 0.785714 0.642857 0.0991742
167 1 0.857143 0.571429 0.0661148
168 1 0.928571 0.642857 0.0991742
71 1 1.0745e-20 0.714286 2.81883e-06
73 1 0.142857 0.714286 2.81883e-06
169 1 8.40409e-20 0.714286 0.0661148
171 1 0.142857 0.714286 0.0661148
75 1 0.285714 0.714286 2.81883e-06
173 1 0.285714 0.714286 0.0661148
72 1 0.0714286 0.785714 0.0330556
74 1 0.214286 0.785714 0.0330556
85 1 2.45599e-20 0.857143 2.81883e-06
86 1 0.0714286 0.928571 0.0330556
87 1 0.142857 0.857143 2.81883e-06
88 1 0.214286 0.928571 0.0330556
170 1 0.0714286 0.785714 0.0991742
172 1 0.214286 0.785714 0.0991742
183 1 5.25078e-19 0.857143 0.0661148
184 1 0.0714286 0.928571 0.0991742
185 1 0.142857 0.857143 0.0661148
186 1 0.214286 0.928571 0.0991742
89 1 0.285714 0.857143 2.81883e-06
187 1 0.285714 0.857143 0.0661148
77 1 0.428571 0.714286 2.81883e-06
175 1 0.428571 0.714286 0.0661148
79 1 0.571429 0.714286 2.81883e-06
177 1 0.571429 0.714286 0.0661148
76 1 0.357143 0.785714 0.0330556
90 1 0.357143 0.928571 0.0330556
91 1 0.428571 0.857143 2.81883e-06
174 1 0.357143 0.785714 0.0991742
188 1 0.357143 0.928571 0.0991742
189 1 0.428571 0.857143 0.0661148
78 1 0.5 0.785714 0.0330556
80 1 0.642857 0.785714 0.0330556
92 1 0.5 0.928571 0.0330556
93 1 0.571429 0.857143 2.81883e-06
94 1 0.642857 0.928571 0.0330556
176 1 0.5 0.785714 0.0991742
178 1 0.642857 0.785714 0.0991742
190 1 0.5 0.928571 0.0991742
191 1 0.571429 0.857143 0.0661148
192 1 0.642857 0.928571 0.0991742
81 1 0.714286 0.714286 2.81883e-06
179 1 0.714286 0.714286 0.0661148
83 1 0.857143 0.714286 2.81883e-06
181 1 0.857143 0.714286 0.0661148
95 1 0.714286 0.857143 2.81883e-06
193 1 0.714286 0.857143 0.0661148
82 1 0.785714 0.785714 0.0330556
84 1 0.928571 0.785714 0.0330556
96 1 0.785714 0.928571 0.0330556
97 1 0.857143 0.857143 2.81883e-06
98 1 0.928571 0.928571 0.0330556
180 1 0.785714 0.785714 0.0991742
182 1 0.928571 0.785714 0.0991742
194 1 0.785714 0.928571 0.0991742
195 1 0.857143 0.857143 0.0661148
196 1 0.928571 0.928571 0.0991742
197 1 7.40054e-15 4.15522e-15 0.132232
198 1 0.0714286 0.0714286 0.16529
199 1 0.142857 1.7017e-15 0.132232
200 1 0.214286 0.0714286 0.16529
211 1 7.50741e-15 0.142857 0.132232
212 1 0.0714286 0.214286 0.16529
213 1 0.142857 0.142857 0.132232
214 1 0.214286 0.214286 0.16529
295 1 -1.164e-14 4.80207e-15 0.198348
297 1 0.142857 1.8437e-14 0.198348
309 1 -2.10637e-15 0.142857 0.198348
311 1 0.142857 0.142857 0.198348
201 1 0.285714 3.8691e-15 0.132232
215 1 0.285714 0.142857 0.132232
299 1 0.285714 2.65758e-14 0.198348
313 1 0.285714 0.142857 0.198348
225 1 4.01204e-15 0.285714 0.132232
227 1 0.142857 0.285714 0.132232
323 1 -4.11093e-16 0.285714 0.198348
325 1 0.142857 0.285714 0.198348
229 1 0.285714 0.285714 0.132232
327 1 0.285714 0.285714 0.198348
296 1 0.0714286 0.0714286 0.231407
298 1 0.214286 0.0714286 0.231407
310 1 0.0714286 0.214286 0.231407
312 1 0.214286 0.214286 0.231407
202 1 0.357143 0.0714286 0.16529
203 1 0.428571 4.75963e-15 0.132232
216 1 0.357143 0.214286 0.16529
217 1 0.428571 0.142857 0.132232
301 1 0.428571 3.7125e-15 0.198348
315 1 0.428571 0.142857 0.198348
204 1 0.5 0.0714286 0.16529
205 1 0.571429 4.53143e-15 0.132232
206 1 0.642857 0.0714286 0.16529
218 1 0.5 0.214286 0.16529
219 1 0.571429 0.142857 0.132232
220 1 0.642857 0.214286 0.16529
303 1 0.571429 -1.47559e-14 0.198348
317 1 0.571429 0.142857 0.198348
231 1 0.428571 0.285714 0.132232
329 1 0.428571 0.285714 0.198348
233 1 0.571429 0.285714 0.132232
331 1 0.571429 0.285714 0.198348
300 1 0.357143 0.0714286 0.231407
314 1 0.357143 0.214286 0.231407
302 1 0.5 0.0714286 0.231407
304 1 0.642857 0.0714286 0.231407
316 1 0.5 0.214286 0.231407
318 1 0.642857 0.214286 0.231407
207 1 0.714286 5.70577e-15 0.132232
221 1 0.714286 0.142857 0.132232
305 1 0.714286 1.03114e-14 0.198348
319 1 0.714286 0.142857 0.198348
208 1 0.785714 0.0714286 0.16529
209 1 0.857143 9.41639e-16 0.132232
210 1 0.928571 0.0714286 0.16529
222 1 0.785714 0.214286 0.16529
223 1 0.857143 0.142857 0.132232
224 1 0.928571 0.214286 0.16529
307 1 0.857143 7.4043e-15 0.198348
321 1 0.857143 0.142857 0.198348
235 1 0.714286 0.285714 0.132232
333 1 0.714286 0.285714 0.198348
237 1 0.857143 0.285714 0.132232
335 1 0.857143 0.285714 0.198348
306 1 0.785714 0.0714286 0.231407
308 1 0.928571 0.0714286 0.231407
320 1 0.785714 0.214286 0.231407
322 1 0.928571 0.214286 0.231407
226 1 0.0714286 0.357143 0.16529
228 1 0.214286 0.357143 0.16529
239 1 6.55751e-15 0.428571 0.132232
241 1 0.142857 0.428571 0.132232
337 1 1.03318e-14 0.428571 0.198348
339 1 0.142857 0.428571 0.198348
243 1 0.285714 0.428571 0.132232
341 1 0.285714 0.428571 0.198348
240 1 0.0714286 0.5 0.16529
242 1 0.214286 0.5 0.16529
253 1 4.37769e-15 0.571429 0.132232
254 1 0.0714286 0.642857 0.16529
255 1 0.142857 0.571429 0.132232
256 1 0.214286 0.642857 0.16529
351 1 -4.95618e-16 0.571429 0.198348
353 1 0.142857 0.571429 0.198348
257 1 0.285714 0.571429 0.132232
355 1 0.285714 0.571429 0.198348
324 1 0.0714286 0.357143 0.231407
326 1 0.214286 0.357143 0.231407
338 1 0.0714286 0.5 0.231407
340 1 0.214286 0.5 0.231407
352 1 0.0714286 0.642857 0.231407
354 1 0.214286 0.642857 0.231407
230 1 0.357143 0.357143 0.16529
245 1 0.428571 0.428571 0.132232
343 1 0.428571 0.428571 0.198348
232 1 0.5 0.357143 0.16529
234 1 0.642857 0.357143 0.16529
247 1 0.571429 0.428571 0.132232
345 1 0.571429 0.428571 0.198348
244 1 0.357143 0.5 0.16529
258 1 0.357143 0.642857 0.16529
259 1 0.428571 0.571429 0.132232
357 1 0.428571 0.571429 0.198348
246 1 0.5 0.5 0.16529
248 1 0.642857 0.5 0.16529
260 1 0.5 0.642857 0.16529
261 1 0.571429 0.571429 0.132232
262 1 0.642857 0.642857 0.16529
359 1 0.571429 0.571429 0.198348
328 1 0.357143 0.357143 0.231407
330 1 0.5 0.357143 0.231407
332 1 0.642857 0.357143 0.231407
342 1 0.357143 0.5 0.231407
356 1 0.357143 0.642857 0.231407
344 1 0.5 0.5 0.231407
346 1 0.642857 0.5 0.231407