ITEM: TIMESTEP
0
ITEM: NUMBER OF ATOMS
580
ITEM: BOX BOUNDS pp pp ff
0.0000000000000000e+00 1.6529000000000000e+01
0.0000000000000000e+00 1.6529000000000000e+01
0.0000000000000000e+00 5.0000000000000000e+01
ITEM: ATOMS id type xs ys zs
1 1 0 0 0
2 1 0.1 0.1 0.033058
3 1 0.2 0 0
4 1 0.3 0.1 0.033058
11 1 0 0 0
12 1 0.1 0.1 0.033058
13 1 0.2 0 0
14 1 0.3 0.1 0.033058
15 1 0 0.2 0
16 1 0.1 0.3 0.033058
17 1 0.2 0.2 0
18 1 0.3 0.3 0.033058
25 1 0 0.2 0
26 1 0.1 0.3 0.033058
27 1 0.2 0.2 0
28 1 0.3 0.3 0.033058
71 1 0 0 0
72 1 0.1 0.1 0.033058
73 1 0.2 0 0
74 1 0.3 0.1 0.033058
81 1 0 0 0
82 1 0.1 0.1 0.033058
83 1 0.2 0 0
84 1 0.3 0.1 0.033058
85 1 0 0.2 0
86 1 0.1 0.3 0.033058
87 1 0.2 0.2 0
88 1 0.3 0.3 0.033058
95 1 0 0.2 0
96 1 0.1 0.3 0.033058
97 1 0.2 0.2 0
98 1 0.3 0.3 0.033058
99 1 0 0 0.066116
100 1 0.1 0.1 0.099174
101 1 0.2 0 0.066116
102 1 0.3 0.1 0.099174
109 1 0 0 0.066116
110 1 0.1 0.1 0.099174
111 1 0.2 0 0.066116
112 1 0.3 0.1 0.099174
113 1 0 0.2 0.066116
114 1 0.1 0.3 0.099174
115 1 0.2 0.2 0.066116
116 1 0.3 0.3 0.099174
123 1 0 0.2 0.066116
124 1 0.1 0.3 0.099174
125 1 0.2 0.2 0.066116
126 1 0.3 0.3 0.099174
169 1 0 0 0.066116
170 1 0.1 0.1 0.099174
171 1 0.2 0 0.066116
172 1 0.3 0.1 0.099174
179 1 0 0 0.066116
180 1 0.1 0.1 0.099174
181 1 0.2 0 0.066116
182 1 0.3 0.1 0.099174
183 1 0 0.2 0.066116
184 1 0.1 0.3 0.099174
185 1 0.2 0.2 0.066116
186 1 0.3 0.3 0.099174
193 1 0 0.2 0.066116
194 1 0.1 0.3 0.099174
195 1 0.2 0.2 0.066116
196 1 0.3 0.3 0.099174
5 1 0.4 0 0
6 1 0.5 0.1 0.033058
7 1 0.6 0 0
19 1 0.4 0.2 0
20 1 0.5 0.3 0.033058
21 1 0.6 0.2 0
75 1 0.4 0 0
76 1 0.5 0.1 0.033058
77 1 0.6 0 0
89 1 0.4 0.2 0
90 1 0.5 0.3 0.033058
91 1 0.6 0.2 0
103 1 0.4 0 0.066116
104 1 0.5 0.1 0.099174
105 1 0.6 0 0.066116
117 1 0.4 0.2 0.066116
118 1 0.5 0.3 0.099174
119 1 0.6 0.2 0.066116
173 1 0.4 0 0.066116
174 1 0.5 0.1 0.099174
175 1 0.6 0 0.066116
187 1 0.4 0.2 0.066116
188 1 0.5 0.3 0.099174
189 1 0.6 0.2 0.066116
8 1 0.7 0.1 0.033058
9 1 0.8 0 0
10 1 0.9 0.1 0.033058
22 1 0.7 0.3 0.033058
23 1 0.8 0.2 0
24 1 0.9 0.3 0.033058
78 1 0.7 0.1 0.033058
79 1 0.8 0 0
80 1 0.9 0.1 0.033058
92 1 0.7 0.3 0.033058
93 1 0.8 0.2 0
94 1 0.9 0.3 0.033058
106 1 0.7 0.1 0.099174
107 1 0.8 0 0.066116
108 1 0.9 0.1 0.099174
120 1 0.7 0.3 0.099174
121 1 0.8 0.2 0.066116
122 1 0.9 0.3 0.099174
176 1 0.7 0.1 0.099174
177 1 0.8 0 0.066116
178 1 0.9 0.1 0.099174
190 1 0.7 0.3 0.099174
191 1 0.8 0.2 0.066116
192 1 0.9 0.3 0.099174
29 1 0 0.4 0
30 1 0.1 0.5 0.033058
31 1 0.2 0.4 0
32 1 0.3 0.5 0.033058
39 1 0 0.4 0
40 1 0.1 0.5 0.033058
41 1 0.2 0.4 0
42 1 0.3 0.5 0.033058
43 1 0 0.6 0
45 1 0.2 0.6 0
53 1 0 0.6 0
55 1 0.2 0.6 0
127 1 0 0.4 0.066116
128 1 0.1 0.5 0.099174
129 1 0.2 0.4 0.066116
130 1 0.3 0.5 0.099174
137 1 0 0.4 0.066116
138 1 0.1 0.5 0.099174
139 1 0.2 0.4 0.066116
140 1 0.3 0.5 0.099174
141 1 0 0.6 0.066116
143 1 0.2 0.6 0.066116
151 1 0 0.6 0.066116
153 1 0.2 0.6 0.066116
33 1 0.4 0.4 0
34 1 0.5 0.5 0.033058
35 1 0.6 0.4 0
47 1 0.4 0.6 0
49 1 0.6 0.6 0
131 1 0.4 0.4 0.066116
132 1 0.5 0.5 0.099174
133 1 0.6 0.4 0.066116
145 1 0.4 0.6 0.066116
147 1 0.6 0.6 0.066116
36 1 0.7 0.5 0.033058
37 1 0.8 0.4 0
38 1 0.9 0.5 0.033058
51 1 0.8 0.6 0
134 1 0.7 0.5 0.099174
135 1 0.8 0.4 0.066116
136 1 0.9 0.5 0.099174
149 1 0.8 0.6 0.066116
44 1 0.1 0.7 0.033058
46 1 0.3 0.7 0.033058
54 1 0.1 0.7 0.033058
56 1 0.3 0.7 0.033058
57 1 0 0.8 0
58 1 0.1 0.9 0.033058
59 1 0.2 0.8 0
60 1 0.3 0.9 0.033058
67 1 0 0.8 0
68 1 0.1 0.9 0.033058
69 1 0.2 0.8 0
70 1 0.3 0.9 0.033058
142 1 0.1 0.7 0.099174
144 1 0.3 0.7 0.099174
152 1 0.1 0.7 0.099174
154 1 0.3 0.7 0.099174
155 1 0 0.8 0.066116
156 1 0.1 0.9 0.099174
157 1 0.2 0.8 0.066116
158 1 0.3 0.9 0.099174
165 1 0 0.8 0.066116
166 1 0.1 0.9 0.099174
167 1 0.2 0.8 0.066116
168 1 0.3 0.9 0.099174
48 1 0.5 0.7 0.033058
61 1 0.4 0.8 0
62 1 0.5 0.9 0.033058
63 1 0.6 0.8 0
146 1 0.5 0.7 0.099174
159 1 0.4 0.8 0.066116
160 1 0.5 0.9 0.099174
161 1 0.6 0.8 0.066116
50 1 0.7 0.7 0.033058
52 1 0.9 0.7 0.033058
64 1 0.7 0.9 0.033058
65 1 0.8 0.8 0
66 1 0.9 0.9 0.033058
148 1 0.7 0.7 0.099174
150 1 0.9 0.7 0.099174
162 1 0.7 0.9 0.099174
163 1 0.8 0.8 0.066116
164 1 0.9 0.9 0.099174
197 1 0 0 0.132232
198 1 0.1 0.1 0.16529
199 1 0.2 0 0.132232
200 1 0.3 0.1 0.16529
207 1 0 0 0.132232
208 1 0.1 0.1 0.16529
209 1 0.2 0 0.132232
210 1 0.3 0.1 0.16529
211 1 0 0.2 0.132232
212 1 0.1 0.3 0.16529
213 1 0.2 0.2 0.132232
214 1 0.3 0.3 0.16529
221 1 0 0.2 0.132232
222 1 0.1 0.3 0.16529
223 1 0.2 0.2 0.132232
224 1 0.3 0.3 0.16529
267 1 0 0 0.132232
268 1 0.1 0.1 0.16529
269 1 0.2 0 0.132232
270 1 0.3 0.1 0.16529
277 1 0 0 0.132232
278 1 0.1 0.1 0.16529
279 1 0.2 0 0.132232
280 1 0.3 0.1 0.16529
281 1 0 0.2 0.132232
282 1 0.1 0.3 0.16529
283 1 0.2 0.2 0.132232
284 1 0.3 0.3 0.16529
291 1 0 0.2 0.132232
292 1 0.1 0.3 0.16529
293 1 0.2 0.2 0.132232
294 1 0.3 0.3 0.16529
295 1 0 0 0.198348
297 1 0.2 0 0.198348
305 1 0 0 0.198348
307 1 0.2 0 0.198348
309 1 0 0.2 0.198348
311 1 0.2 0.2 0.198348
319 1 0 0.2 0.198348
321 1 0.2 0.2 0.198348
365 1 0 0 0.198348
367 1 0.2 0 0.198348
375 1 0 0 0.198348
377 1 0.2 0 0.198348
379 1 0 0.2 0.198348
381 1 0.2 0.2 0.198348
389 1 0 0.2 0.198348
391 1 0.2 0.2 0.198348
201 1 0.4 0 0.132232
202 1 0.5 0.1 0.16529
203 1 0.6 0 0.132232
215 1 0.4 0.2 0.132232
216 1 0.5 0.3 0.16529
217 1 0.6 0.2 0.132232
271 1 0.4 0 0.132232
272 1 0.5 0.1 0.16529
273 1 0.6 0 0.132232
285 1 0.4 0.2 0.132232
286 1 0.5 0.3 0.16529
287 1 0.6 0.2 0.132232
299 1 0.4 0 0.198348
301 1 0.6 0 0.198348
313 1 0.4 0.2 0.198348
315 1 0.6 0.2 0.198348
369 1 0.4 0 0.198348
371 1 0.6 0 0.198348
383 1 0.4 0.2 0.198348
385 1 0.6 0.2 0.198348
204 1 0.7 0.1 0.16529
205 1 0.8 0 0.132232
206 1 0.9 0.1 0.16529
218 1 0.7 0.3 0.16529
219 1 0.8 0.2 0.132232
220 1 0.9 0.3 0.16529
274 1 0.7 0.1 0.16529
275 1 0.8 0 0.132232
276 1 0.9 0.1 0.16529
288 1 0.7 0.3 0.16529
289 1 0.8 0.2 0.132232
290 1 0.9 0.3 0.16529
303 1 0.8 0 0.198348
317 1 0.8 0.2 0.198348
373 1 0.8 0 0.198348
387 1 0.8 0.2 0.198348
225 1 0 0.4 0.132232
226 1 0.1 0.5 0.16529
227 1 0.2 0.4 0.132232
228 1 0.3 0.5 0.16529
235 1 0 0.4 0.132232
236 1 0.1 0.5 0.16529
237 1 0.2 0.4 0.132232
238 1 0.3 0.5 0.16529
239 1 0 0.6 0.132232
241 1 0.2 0.6 0.132232
249 1 0 0.6 0.132232
251 1 0.2 0.6 0.132232
323 1 0 0.4 0.198348
325 1 0.2 0.4 0.198348
333 1 0 0.4 0.198348
335 1 0.2 0.4 0.198348
337 1 0 0.6 0.198348
339 1 0.2 0.6 0.198348
347 1 0 0.6 0.198348
349 1 0.2 0.6 0.198348
229 1 0.4 0.4 0.132232
230 1 0.5 0.5 0.16529
231 1 0.6 0.4 0.132232
243 1 0.4 0.6 0.132232
245 1 0.6 0.6 0.132232
327 1 0.4 0.4 0.198348
329 1 0.6 0.4 0.198348
341 1 0.4 0.6 0.198348
343 1 0.6 0.6 0.198348
232 1 0.7 0.5 0.16529
233 1 0.8 0.4 0.132232
234 1 0.9 0.5 0.16529
247 1 0.8 0.6 0.132232
331 1 0.8 0.4 0.198348
345 1 0.8 0.6 0.198348
240 1 0.1 0.7 0.16529
242 1 0.3 0.7 0.16529
250 1 0.1 0.7 0.16529
252 1 0.3 0.7 0.16529
253 1 0 0.8 0.132232
254 1 0.1 0.9 0.16529
255 1 0.2 0.8 0.132232
256 1 0.3 0.9 0.16529
263 1 0 0.8 0.132232
264 1 0.1 0.9 0.16529
265 1 0.2 0.8 0.132232
266 1 0.3 0.9 0.16529
351 1 0 0.8 0.198348
353 1 0.2 0.8 0.198348
361 1 0 0.8 0.198348
363 1 0.2 0.8 0.198348
244 1 0.5 0.7 0.16529
257 1 0.4 0.8 0.132232
258 1 0.5 0.9 0.16529
259 1 0.6 0.8 0.132232
355 1 0.4 0.8 0.198348
357 1 0.6 0.8 0.198348
246 1 0.7 0.7 0.16529
248 1 0.9 0.7 0.16529
260 1 0.7 0.9 0.16529
261 1 0.8 0.8 0.132232
262 1 0.9 0.9 0.16529
359 1 0.8 0.8 0.198348
296 1 0.1 0.1 0.231406
298 1 0.3 0.1 0.231406
306 1 0.1 0.1 0.231406
308 1 0.3 0.1 0.231406
310 1 0.1 0.3 0.231406
312 1 0.3 0.3 0.231406
320 1 0.1 0.3 0.231406
322 1 0.3 0.3 0.231406
366 1 0.1 0.1 0.231406
368 1 0.3 0.1 0.231406
376 1 0.1 0.1 0.231406
378 1 0.3 0.1 0.231406
380 1 0.1 0.3 0.231406
382 1 0.3 0.3 0.231406
390 1 0.1 0.3 0.231406
392 1 0.3 0.3 0.231406
393 1 0 0 0.264464
394 1 0.1 0.1 0.297522
395 1 0.2 0 0.264464
396 1 0.3 0.1 0.297522
403 1 0 0 0.264464
404 1 0.1 0.1 0.297522
405 1 0.2 0 0.264464
406 1 0.3 0.1 0.297522
407 1 0 0.2 0.264464
408 1 0.1 0.3 0.297522
409 1 0.2 0.2 0.264464
410 1 0.3 0.3 0.297522
417 1 0 0.2 0.264464
418 1 0.1 0.3 0.297522
419 1 0.2 0.2 0.264464
420 1 0.3 0.3 0.297522
463 1 0 0 0.264464
464 1 0.1 0.1 0.297522
465 1 0.2 0 0.264464
466 1 0.3 0.1 0.297522
473 1 0 0 0.264464
474 1 0.1 0.1 0.297522
475 1 0.2 0 0.264464
476 1 0.3 0.1 0.297522
477 1 0 0.2 0.264464
478 1 0.1 0.3 0.297522
479 1 0.2 0.2 0.264464
480 1 0.3 0.3 0.297522
487 1 0 0.2 0.264464
488 1 0.1 0.3 0.297522
489 1 0.2 0.2 0.264464
490 1 0.3 0.3 0.297522
300 1 0.5 0.1 0.231406
314 1 0.5 0.3 0.231406
370 1 0.5 0.1 0.231406
384 1 0.5 0.3 0.231406
397 1 0.4 0 0.264464
398 1 0.5 0.1 0.297522
399 1 0.6 0 0.264464
411 1 0.4 0.2 0.264464
412 1 0.5 0.3 0.297522
413 1 0.6 0.2 0.264464
467 1 0.4 0 0.264464
468 1 0.5 0.1 0.297522
469 1 0.6 0 0.264464
481 1 0.4 0.2 0.264464
482 1 0.5 0.3 0.297522
483 1 0.6 0.2 0.264464
302 1 0.7 0.1 0.231406
304 1 0.9 0.1 0.231406
316 1 0.7 0.3 0.231406
318 1 0.9 0.3 0.231406
372 1 0.7 0.1 0.231406
374 1 0.9 0.1 0.231406
386 1 0.7 0.3 0.231406
388 1 0.9 0.3 0.231406
400 1 0.7 0.1 0.297522
401 1 0.8 0 0.264464
402 1 0.9 0.1 0.297522
414 1 0.7 0.3 0.297522
415 1 0.8 0.2 0.264464
416 1 0.9 0.3 0.297522
470 1 0.7 0.1 0.297522
471 1 0.8 0 0.264464
472 1 0.9 0.1 0.297522
484 1 0.7 0.3 0.297522
485 1 0.8 0.2 0.264464
486 1 0.9 0.3 0.297522
324 1 0.1 0.5 0.231406
326 1 0.3 0.5 0.231406
334 1 0.1 0.5 0.231406
336 1 0.3 0.5 0.231406
421 1 0 0.4 0.264464
422 1 0.1 0.5 0.297522
423 1 0.2 0.4 0.264464
424 1 0.3 0.5 0.297522
431 1 0 0.4 0.264464
432 1 0.1 0.5 0.297522
433 1 0.2 0.4 0.264464
434 1 0.3 0.5 0.297522
435 1 0 0.6 0.264464
437 1 0.2 0.6 0.264464
445 1 0 0.6 0.264464
447 1 0.2 0.6 0.264464
328 1 0.5 0.5 0.231406
425 1 0.4 0.4 0.264464
426 1 0.5 0.5 0.297522
427 1 0.6 0.4 0.264464
439 1 0.4 0.6 0.264464
441 1 0.6 0.6 0.264464
330 1 0.7 0.5 0.231406
332 1 0.9 0.5 0.231406
428 1 0.7 0.5 0.297522
429 1 0.8 0.4 0.264464
430 1 0.9 0.5 0.297522
443 1 0.8 0.6 0.264464
338 1 0.1 0.7 0.231406
340 1 0.3 0.7 0.231406
348 1 0.1 0.7 0.231406
350 1 0.3 0.7 0.231406
352 1 0.1 0.9 0.231406
354 1 0.3 0.9 0.231406
362 1 0.1 0.9 0.231406
364 1 0.3 0.9 0.231406
436 1 0.1 0.7 0.297522
438 1 0.3 0.7 0.297522
446 1 0.1 0.7 0.297522
448 1 0.3 0.7 0.297522
449 1 0 0.8 0.264464
450 1 0.1 0.9 0.297522
451 1 0.2 0.8 0.264464
452 1 0.3 0.9 0.297522
459 1 0 0.8 0.264464
460 1 0.1 0.9 0.297522
461 1 0.2 0.8 0.264464
462 1 0.3 0.9 0.297522
342 1 0.5 0.7 0.231406
356 1 0.5 0.9 0.231406
440 1 0.5 0.7 0.297522
453 1 0.4 0.8 0.264464
454 1 0.5 0.9 0.297522
455 1 0.6 0.8 0.264464
344 1 0.7 0.7 0.231406
346 1 0.9 0.7 0.231406
358 1 0.7 0.9 0.231406
360 1 0.9 0.9 0.231406
442 1 0.7 0.7 0.297522
444 1 0.9 0.7 0.297522
456 1 0.7 0.9 0.297522
457 1 0.8 0.8 0.264464
458 1 0.9 0.9 0.297522
492 2 0.033613 0.0109849 0.416652
493 2 0.430395 0.0170368 0.409467
496 2 0.869711 0.0289214 0.419733
498 2 0.0363248 0.419891 0.418501
499 2 0.39097 0.406324 0.420063
500 2 0.456026 0.440672 0.419937
497 2 0.963675 0.427105 0.421499
501 2 0.829066 0.391422 0.419456
502 2 0.864927 0.455574 0.420544
503 2 0.00291294 0.88311 0.422099
494 2 0.416601 0.982963 0.430533
505 2 0.391618 0.828687 0.420402
506 2 0.455379 0.865305 0.419598
491 2 0.966387 0.989015 0.423348
495 2 0.824282 0.971079 0.420267
504 2 0.997087 0.810882 0.417901
507 2 0.858183 0.825867 0.410759
508 2 0.835809 0.868125 0.429241
511 2 0.401166 0.023057 0.554061
520 2 0.835083 0.406616 0.54994
524 2 0.450936 0.836263 0.55272
522 2 0.991387 0.818469 0.552871
509 2 0.971461 0.0230041 0.558988
514 2 0.881282 0.0117482 0.557922
515 2 0.0010485 0.460207 0.559307
517 2 0.449398 0.399219 0.563185
518 2 0.397598 0.447777 0.556815
516 2 0.998952 0.386789 0.560693
519 2 0.85891 0.44038 0.57006
510 2 0.0285391 0.976996 0.561012
521 2 0.00861272 0.875524 0.567129
512 2 0.44583 0.976943 0.565939
523 2 0.39606 0.857729 0.56728
513 2 0.81271 0.988252 0.562078
525 2 0.810274 0.846889 0.5593
526 2 0.883719 0.847103 0.5607
530 2 0.45765 0.0132683 0.701079
527 2 0.969559 0.0135405 0.694846
531 2 0.835981 0.0125488 0.689165
534 2 0.0367473 0.424405 0.700451
535 2 0.428721 0.393586 0.706863
536 2 0.418275 0.453411 0.693137
533 2 0.963253 0.422591 0.699549
537 2 0.820059 0.411683 0.707301
538 2 0.873934 0.435313 0.692699
528 2 0.0304408 0.986459 0.705154
540 2 0.00856654 0.811235 0.699709
529 2 0.389346 0.986732 0.698921
541 2 0.430827 0.862072 0.689176
542 2 0.416169 0.83192 0.710824
532 2 0.858011 0.987451 0.710835
539 2 0.991433 0.882758 0.700291
543 2 0.860428 0.824024 0.691605
544 2 0.833565 0.869969 0.708395
546 2 0.00595389 0.0359849 0.838425
548 2 0.423362 0.0152248 0.828931
549 2 0.811583 0.00705519 0.837682
552 2 0.0365003 0.423912 0.838499
553 2 0.452404 0.436406 0.846192
554 2 0.394592 0.41059 0.833808
551 2 0.9635 0.423085 0.841501
555 2 0.814392 0.416445 0.845124
556 2 0.879601 0.430552 0.834876
558 2 0.00937481 0.81694 0.846288
547 2 0.423634 0.984775 0.851069
559 2 0.419217 0.816118 0.833545
560 2 0.427779 0.877874 0.846455
545 2 0.994046 0.964015 0.841575
550 2 0.882409 0.992945 0.842318
557 2 0.990625 0.877052 0.833712
561 2 0.810341 0.847801 0.839018
562 2 0.883651 0.846191 0.840982
564 2 0.0316285 0.0119416 0.984792
566 2 0.460277 0.000551711 0.979942
567 2 0.81131 0.00115883 0.982923
570 2 0.0105359 0.451078 0.987253
571 2 0.442753 0.396325 0.985163
572 2 0.404243 0.450671 0.974837
569 2 0.989464 0.395918 0.972747
573 2 0.814347 0.410671 0.976341
574 2 0.879646 0.436325 0.983659
576 2 0.0345751 0.841931 0.983797
565 2 0.386719 0.999448 0.980058
577 2 0.407503 0.814281 0.978284
578 2 0.439494 0.879711 0.981716
563 2 0.968371 0.988058 0.975208
568 2 0.882682 0.998841 0.977077
575 2 0.965425 0.852062 0.976203
579 2 0.810279 0.844797 0.97994
580 2 0.883714 0.849196 0.98006
ITEM: TIMESTEP
1
ITEM: NUMBER OF ATOMS
580
ITEM: BOX BOUNDS pp pp ff
0.0000000000000000e+00 1.6529000000000000e+01
0.0000000000000000e+00 1.6529000000000000e+01
0.0000000000000000e+00 5.0000000000000000e+01
ITEM: ATOMS id type xs ys zs
1 1 -nan -nan -nan
2 1 -nan -nan -nan
3 1 -nan -nan -nan
4 1 -nan -nan -nan
11 1 -nan -nan -nan
12 1 -nan -nan -nan
13 1 -nan -nan -nan
14 1 -nan -nan -nan
15 1 -nan -nan -nan
16 1 -nan -nan -nan
17 1 -nan -nan -nan
18 1 -nan -nan -nan
25 1 -nan -nan -nan
26 1 -nan -nan -nan
27 1 -nan -nan -nan
28 1 -nan -nan -nan
71 1 -nan -nan -nan
72 1 -nan -nan -nan
73 1 -nan -nan -nan
74 1 -nan -nan -nan
81 1 -nan -nan -nan
82 1 -nan -nan -nan
83 1 -nan -nan -nan
84 1 -nan -nan -nan
85 1 -nan -nan -nan
86 1 -nan -nan -nan
87 1 -nan -nan -nan
88 1 -nan -nan -nan
95 1 -nan -nan -nan
96 1 -nan -nan -nan
97 1 -nan -nan -nan
98 1 -nan -nan -nan
99 1 -nan -nan -nan
100 1 -nan -nan -nan
101 1 -nan -nan -nan
102 1 -nan -nan -nan
109 1 -nan -nan -nan
110 1 -nan -nan -nan
111 1 -nan -nan -nan
112 1 -nan -nan -nan
113 1 -nan -nan -nan
114 1 -nan -nan -nan
115 1 -nan -nan -nan
116 1 -nan -nan -nan
123 1 -nan -nan -nan
124 1 -nan -nan -nan
125 1 -nan -nan -nan
126 1 -nan -nan -nan
169 1 -nan -nan -nan
170 1 -nan -nan -nan
171 1 -nan -nan -nan
172 1 -nan -nan -nan
179 1 -nan -nan -nan
180 1 -nan -nan -nan
181 1 -nan -nan -nan
182 1 -nan -nan -nan
183 1 -nan -nan -nan
184 1 -nan -nan -nan
185 1 -nan -nan -nan
186 1 -nan -nan -nan
193 1 -nan -nan -nan
194 1 -nan -nan -nan
195 1 -nan -nan -nan
196 1 -nan -nan -nan
5 1 -nan -nan -nan
6 1 -nan -nan -nan
7 1 -nan -nan -nan
19 1 -nan -nan -nan
20 1 -nan -nan -nan
21 1 -nan -nan -nan
75 1 -nan -nan -nan
76 1 -nan -nan -nan
77 1 -nan -nan -nan
89 1 -nan -nan -nan
90 1 -nan -nan -nan
91 1 -nan -nan -nan
103 1 -nan -nan -nan
104 1 -nan -nan -nan
105 1 -nan -nan -nan
117 1 -nan -nan -nan
118 1 -nan -nan -nan
119 1 -nan -nan -nan
173 1 -nan -nan -nan
174 1 -nan -nan -nan
175 1 -nan -nan -nan
187 1 -nan -nan -nan
188 1 -nan -nan -nan
189 1 -nan -nan -nan
8 1 -nan -nan -nan
9 1 -nan -nan -nan
10 1 -nan -nan -nan
22 1 -nan -nan -nan
23 1 -nan -nan -nan
24 1 -nan -nan -nan
78 1 -nan -nan -nan
79 1 -nan -nan -nan
80 1 -nan -nan -nan
92 1 -nan -nan -nan
93 1 -nan -nan -nan
94 1 -nan -nan -nan
106 1 -nan -nan -nan
107 1 -nan -nan -nan
108 1 -nan -nan -nan
120 1 -nan -nan -nan
121 1 -nan -nan -nan
122 1 -nan -nan -nan
176 1 -nan -nan -nan
177 1 -nan -nan -nan
178 1 -nan -nan -nan
190 1 -nan -nan -nan
191 1 -nan -nan -nan
192 1 -nan -nan -nan
29 1 -nan -nan -nan
30 1 -nan -nan -nan
31 1 -nan -nan -nan
32 1 -nan -nan -nan
39 1 -nan -nan -nan
40 1 -nan -nan -nan
41 1 -nan -nan -nan
42 1 -nan -nan -nan
43 1 -nan -nan -nan
45 1 -nan -nan -nan
53 1 -nan -nan -nan
55 1 -nan -nan -nan
127 1 -nan -nan -nan
128 1 -nan -nan -nan
129 1 -nan -nan -nan
130 1 -nan -nan -nan
137 1 -nan -nan -nan
138 1 -nan -nan -nan
139 1 -nan -nan -nan
140 1 -nan -nan -nan
141 1 -nan -nan -nan
143 1 -nan -nan -nan
151 1 -nan -nan -nan
153 1 -nan -nan -nan
33 1 -nan -nan -nan
34 1 -nan -nan -nan
35 1 -nan -nan -nan
47 1 -nan -nan -nan
49 1 -nan -nan -nan
131 1 -nan -nan -nan
132 1 -nan -nan -nan
133 1 -nan -nan -nan
145 1 -nan -nan -nan
147 1 -nan -nan -nan
36 1 -nan -nan -nan
37 1 -nan -nan -nan
38 1 -nan -nan -nan
51 1 -nan -nan -nan
134 1 -nan -nan -nan
135 1 -nan -nan -nan
136 1 -nan -nan -nan
149 1 -nan -nan -nan
44 1 -nan -nan -nan
46 1 -nan -nan -nan
54 1 -nan -nan -nan
56 1 -nan -nan -nan
57 1 -nan -nan -nan
58 1 -nan -nan -nan
59 1 -nan -nan -nan
60 1 -nan -nan -nan
67 1 -nan -nan -nan
68 1 -nan -nan -nan
69 1 -nan -nan -nan
70 1 -nan -nan -nan
142 1 -nan -nan -nan
144 1 -nan -nan -nan
152 1 -nan -nan -nan
154 1 -nan -nan -nan
155 1 -nan -nan -nan
156 1 -nan -nan -nan
157 1 -nan -nan -nan
158 1 -nan -nan -nan
165 1 -nan -nan -nan
166 1 -nan -nan -nan
167 1 -nan -nan -nan
168 1 -nan -nan -nan
48 1 -nan -nan -nan
61 1 -nan -nan -nan
62 1 -nan -nan -nan
63 1 -nan -nan -nan
146 1 -nan -nan -nan
159 1 -nan -nan -nan
160 1 -nan -nan -nan
161 1 -nan -nan -nan
50 1 -nan -nan -nan
52 1 -nan -nan -nan
64 1 -nan -nan -nan
65 1 -nan -nan -nan
66 1 -nan -nan -nan
148 1 -nan -nan -nan
150 1 -nan -nan -nan
162 1 -nan -nan -nan
163 1 -nan -nan -nan
164 1 -nan -nan -nan
197 1 -nan -nan -nan
198 1 -nan -nan -nan
199 1 -nan -nan -nan
200 1 -nan -nan -nan
207 1 -nan -nan -nan
208 1 -nan -nan -nan
209 1 -nan -nan -nan
210 1 -nan -nan -nan
211 1 -nan -nan -nan
212 1 -nan -nan -nan
213 1 -nan -nan -nan
214 1 -nan -nan -nan
221 1 -nan -nan -nan
222 1 -nan -nan -nan
223 1 -nan -nan -nan
224 1 -nan -nan -nan
267 1 -nan -nan -nan
268 1 -nan -nan -nan
269 1 -nan -nan -nan
270 1 -nan -nan -nan
277 1 -nan -nan -nan
278 1 -nan -nan -nan
279 1 -nan -nan -nan
280 1 -nan -nan -nan
281 1 -nan -nan -nan
282 1 -nan -nan -nan
283 1 -nan -nan -nan
284 1 -nan -nan -nan
291 1 -nan -nan -nan
292 1 -nan -nan -nan
293 1 -nan -nan -nan
294 1 -nan -nan -nan
295 1 -nan -nan -nan
297 1 -nan -nan -nan
305 1 -nan -nan -nan
307 1 -nan -nan -nan
309 1 -nan -nan -nan
311 1 -nan -nan -nan
319 1 -nan -nan -nan
321 1 -nan -nan -nan
365 1 -nan -nan -nan
367 1 -nan -nan -nan
375 1 -nan -nan -nan
377 1 -nan -nan -nan
379 1 -nan -nan -nan
381 1 -nan -nan -nan
389 1 -nan -nan -nan
391 1 -nan -nan -nan
201 1 -nan -nan -nan
202 1 -nan -nan -nan
203 1 -nan -nan -nan
215 1 -nan -nan -nan
216 1 -nan -nan -nan
217 1 -nan -nan -nan
271 1 -nan -nan -nan
272 1 -nan -nan -nan
273 1 -nan -nan -nan
285 1 -nan -nan -nan
286 1 -nan -nan -nan
287 1 -nan -nan -nan
299 1 -nan -nan -nan
301 1 -nan -nan -nan
313 1 -nan -nan -nan
315 1 -nan -nan -nan
369 1 -nan -nan -nan
371 1 -nan -nan -nan
383 1 -nan -nan -nan
385 1 -nan -nan -nan
204 1 -nan -nan -nan
205 1 -nan -nan -nan
206 1 -nan -nan -nan
218 1 -nan -nan -nan
219 1 -nan -nan -nan
220 1 -nan -nan -nan
274 1 -nan -nan -nan
275 1 -nan -nan -nan
276 1 -nan -nan -nan
288 1 -nan -nan -nan
289 1 -nan -nan -nan
290 1 -nan -nan -nan
303 1 -nan -nan -nan
317 1 -nan -nan -nan
373 1 -nan -nan -nan
387 1 -nan -nan -nan
225 1 -nan -nan -nan
226 1 -nan -nan -nan
227 1 -nan -nan -nan
228 1 -nan -nan -nan
235 1 -nan -nan -nan
236 1 -nan -nan -nan
237 1 -nan -nan -nan
238 1 -nan -nan -nan
239 1 -nan -nan -nan
241 1 -nan -nan -nan
249 1 -nan -nan -nan
251 1 -nan -nan -nan
323 1 -nan -nan -nan
325 1 -nan -nan -nan
333 1 -nan -nan -nan
335 1 -nan -nan -nan
337 1 -nan -nan -nan
339 1 -nan -nan -nan
347 1 -nan -nan -nan
349 1 -nan -nan -nan
229 1 -nan -nan -nan
230 1 -nan -nan -nan
231 1 -nan -nan -nan
243 1 -nan -nan -nan
245 1 -nan -nan -nan
327 1 -nan -nan -nan
329 1 -nan -nan -nan
341 1 -nan -nan -nan
343 1 -nan -nan -nan
232 1 -nan -nan -nan
233 1 -nan -nan -nan
234 1 -nan -nan -nan
247 1 -nan -nan -nan
331 1 -nan -nan -nan
345 1 -nan -nan -nan
240 1 -nan -nan -nan
242 1 -nan -nan -nan
250 1 -nan -nan -nan
252 1 -nan -nan -nan
253 1 -nan -nan -nan
254 1 -nan -nan -nan
255 1 -nan -nan -nan
256 1 -nan -nan -nan
263 1 -nan -nan -nan
264 1 -nan -nan -nan
265 1 -nan -nan -nan
266 1 -nan -nan -nan
351 1 -nan -nan -nan
353 1 -nan -nan -nan
361 1 -nan -nan -nan
363 1 -nan -nan -nan
244 1 -nan -nan -nan
257 1 -nan -nan -nan
258 1 -nan -nan -nan
259 1 -nan -nan -nan
355 1 -nan -nan -nan
357 1 -nan -nan -nan
246 1 -nan -nan -nan
248 1 -nan -nan -nan
260 1 -nan -nan -nan
261 1 -nan -nan -nan
262 1 -nan -nan -nan
359 1 -nan -nan -nan
296 1 -nan -nan -nan
298 1 -nan -nan -nan
306 1 -nan -nan -nan
308 1 -nan -nan -nan
310 1 -nan -nan -nan
312 1 -nan -nan -nan
320 1 -nan -nan -nan
322 1 -nan -nan -nan
366 1 -nan -nan -nan
368 1 -nan -nan -nan
376 1 -nan -nan -nan
378 1 -nan -nan -nan
380 1 -nan -nan -nan
382 1 -nan -nan -nan
390 1 -nan -nan -nan
392 1 -nan -nan -nan
393 1 -nan -nan -nan
394 1 -nan -nan -nan
395 1 -nan -nan -nan
396 1 -nan -nan -nan
403 1 -nan -nan -nan
404 1 -nan -nan -nan
405 1 -nan -nan -nan
406 1 -nan -nan -nan
407 1 -nan -nan -nan
408 1 -nan -nan -nan
409 1 -nan -nan -nan
410 1 -nan -nan -nan
417 1 -nan -nan -nan
418 1 -nan -nan -nan
419 1 -nan -nan -nan
420 1 -nan -nan -nan
463 1 -nan -nan -nan
464 1 -nan -nan -nan
465 1 -nan -nan -nan
466 1 -nan -nan -nan
473 1 -nan -nan -nan
474 1 -nan -nan -nan
475 1 -nan -nan -nan
476 1 -nan -nan -nan
477 1 -nan -nan -nan
478 1 -nan -nan -nan
479 1 -nan -nan -nan
480 1 -nan -nan -nan
487 1 -nan -nan -nan
488 1 -nan -nan -nan
489 1 -nan -nan -nan
490 1 -nan -nan -nan
300 1 -nan -nan -nan
314 1 -nan -nan -nan
370 1 -nan -nan -nan
384 1 -nan -nan -nan
397 1 -nan -nan -nan
398 1 -nan -nan -nan
399 1 -nan -nan -nan
411 1 -nan -nan -nan
412 1 -nan -nan -nan
413 1 -nan -nan -nan
467 1 -nan -nan -nan
468 1 -nan -nan -nan
469 1 -nan -nan -nan
481 1 -nan -nan -nan
482 1 -nan -nan -nan
483 1 -nan -nan -nan
302 1 -nan -nan -nan
304 1 -nan -nan -nan
316 1 -nan -nan -nan
318 1 -nan -nan -nan
372 1 -nan -nan -nan
374 1 -nan -nan -nan
386 1 -nan -nan -nan
388 1 -nan -nan -nan
400 1 -nan -nan -nan
401 1 -nan -nan -nan
402 1 -nan -nan -nan
414 1 -nan -nan -nan
415 1 -nan -nan -nan
416 1 -nan -nan -nan
470 1 -nan -nan -nan
471 1 -nan -nan -nan
472 1 -nan -nan -nan
484 1 -nan -nan -nan
485 1 -nan -nan -nan
486 1 -nan -nan -nan
324 1 -nan -nan -nan
326 1 -nan -nan -nan
334 1 -nan -nan -nan
336 1 -nan -nan -nan
421 1 -nan -nan -nan
422 1 -nan -nan -nan
423 1 -nan -nan -nan
424 1 -nan -nan -nan
431 1 -nan -nan -nan
432 1 -nan -nan -nan
433 1 -nan -nan -nan
434 1 -nan -nan -nan
435 1 -nan -nan -nan
437 1 -nan -nan -nan
445 1 -nan -nan -nan
447 1 -nan -nan -nan
328 1 -nan -nan -nan
425 1 -nan -nan -nan
426 1 -nan -nan -nan
427 1 -nan -nan -nan
439 1 -nan -nan -nan
441 1 -nan -nan -nan
330 1 -nan -nan -nan
332 1 -nan -nan -nan
428 1 -nan -nan -nan
429 1 -nan -nan -nan
430 1 -nan -nan -nan
443 1 -nan -nan -nan
338 1 -nan -nan -nan
340 1 -nan -nan -nan
348 1 -nan -nan -nan
350 1 -nan -nan -nan
352 1 -nan -nan -nan
354 1 -nan -nan -nan
362 1 -nan -nan -nan
364 1 -nan -nan -nan
436 1 -nan -nan -nan
438 1 -nan -nan -nan
446 1 -nan -nan -nan
448 1 -nan -nan -nan
449 1 -nan -nan -nan
450 1 -nan -nan -nan
451 1 -nan -nan -nan
452 1 -nan -nan -nan
459 1 -nan -nan -nan
460 1 -nan -nan -nan
461 1 -nan -nan -nan
462 1 -nan -nan -nan
342 1 -nan -nan -nan
356 1 -nan -nan -nan
440 1 -nan -nan -nan
453 1 -nan -nan -nan
454 1 -nan -nan -nan
455 1 -nan -nan -nan
344 1 -nan -nan -nan
346 1 -nan -nan -nan
358 1 -nan -nan -nan
360 1 -nan -nan -nan
442 1 -nan -nan -nan
444 1 -nan -nan -nan
456 1 -nan -nan -nan
457 1 -nan -nan -nan
458 1 -nan -nan -nan
492 2 0.0335666 0.0110397 0.416657
493 2 0.430373 0.0170255 0.409492
496 2 0.869469 0.0289379 0.419727
498 2 0.0362433 0.419898 0.418505
499 2 0.391056 0.406369 0.420062
500 2 0.455941 0.440627 0.419938
497 2 0.964001 0.427064 0.421497
501 2 0.829048 0.39149 0.419457
502 2 0.8647 0.45554 0.420541
503 2 0.0029855 0.882783 0.422097
494 2 0.416592 0.983127 0.430516
505 2 0.391696 0.828705 0.420399
506 2 0.45533 0.865134 0.419593
491 2 0.966647 0.989158 0.423348
495 2 0.824255 0.971355 0.420253
504 2 0.997167 0.810955 0.417908
507 2 0.858077 0.825878 0.410775
508 2 0.835818 0.867878 0.429235
511 2 0.401224 0.0230165 0.554076
520 2 0.835086 0.406659 0.549964
524 2 0.450867 0.83624 0.552734
522 2 0.991563 0.81848 0.552877
509 2 0.97155 0.022987 0.558988
514 2 0.881155 0.0117611 0.557926
515 2 0.00110186 0.460121 0.559306
517 2 0.44933 0.399283 0.563176
518 2 0.397666 0.447713 0.556824
516 2 0.999005 0.38687 0.56069
519 2 0.858799 0.440342 0.57004
510 2 0.0285441 0.977242 0.561001
521 2 0.00866539 0.875262 0.567128
512 2 0.445807 0.977141 0.565926
523 2 0.396094 0.857595 0.567263
513 2 0.812765 0.988363 0.562074
525 2 0.810355 0.846822 0.559301
526 2 0.883387 0.847069 0.560705
530 2 0.457567 0.0132673 0.701078
527 2 0.969811 0.0136158 0.694844
531 2 0.835927 0.0125543 0.689185
534 2 0.0366722 0.424401 0.700451
535 2 0.428707 0.393664 0.706845
536 2 0.418289 0.453332 0.693155
533 2 0.963446 0.422591 0.699551
537 2 0.820079 0.41171 0.707285
538 2 0.873795 0.435291 0.692713
528 2 0.0304367 0.98666 0.705148
540 2 0.00858883 0.81131 0.699712
529 2 0.389407 0.986864 0.698928
541 2 0.430827 0.861931 0.689197
542 2 0.416191 0.83193 0.710798
532 2 0.85788 0.987612 0.710827
539 2 0.991494 0.882441 0.700287
543 2 0.860309 0.824049 0.69162
544 2 0.833538 0.869744 0.708377
546 2 0.00602962 0.035947 0.838428
548 2 0.423361 0.0152315 0.828954
549 2 0.811661 0.00707528 0.837687
552 2 0.0364343 0.423909 0.838504
553 2 0.452328 0.436372 0.846176
554 2 0.394668 0.410624 0.833824
551 2 0.963432 0.423106 0.84148
555 2 0.814435 0.416461 0.845111
556 2 0.879691 0.430516 0.834905
558 2 0.0094495 0.816952 0.846277
547 2 0.423627 0.985 0.851049
559 2 0.419228 0.816185 0.833561
560 2 0.427776 0.877576 0.846436
545 2 0.994228 0.964105 0.841566
550 2 0.882075 0.99306 0.842318
557 2 0.990825 0.877 0.833718
561 2 0.810416 0.84775 0.83902
562 2 0.8833 0.846095 0.840986
564 2 0.0315893 0.0119415 0.984782
566 2 0.460203 0.000676097 0.979941
567 2 0.811368 0.00120471 0.982918
570 2 0.0105975 0.451016 0.987237
571 2 0.442702 0.396396 0.985149
572 2 0.404294 0.4506 0.974851
569 2 0.989619 0.395947 0.972754
573 2 0.814418 0.410705 0.97635
574 2 0.879358 0.436324 0.983659
576 2 0.0345335 0.841905 0.98379
565 2 0.386778 0.999541 0.980056
577 2 0.407544 0.814356 0.978289
578 2 0.439468 0.87942 0.981714
563 2 0.968274 0.98823 0.975222
568 2 0.882759 0.998886 0.977077
575 2 0.965004 0.851928 0.976237
579 2 0.810335 0.844756 0.979941
580 2 0.884121 0.849134 0.980034
ITEM: TIMESTEP
2
ITEM: NUMBER OF ATOMS
580
ITEM: BOX BOUNDS pp pp ff
0.0000000000000000e+00 1.6529000000000000e+01
0.0000000000000000e+00 1.6529000000000000e+01
0.0000000000000000e+00 5.0000000000000000e+01
ITEM: ATOMS id type xs ys zs
1 1 -nan -nan -nan
2 1 -nan -nan -nan
3 1 -nan -nan -nan
4 1 -nan -nan -nan
11 1 -nan -nan -nan
12 1 -nan -nan -nan
13 1 -nan -nan -nan
14 1 -nan -nan -nan
15 1 -nan -nan -nan
16 1 -nan -nan -nan
17 1 -nan -nan -nan
18 1 -nan -nan -nan
25 1 -nan -nan -nan
26 1 -nan -nan -nan
27 1 -nan -nan -nan
28 1 -nan -nan -nan
71 1 -nan -nan -nan
72 1 -nan -nan -nan
73 1 -nan -nan -nan
74 1 -nan -nan -nan
81 1 -nan -nan -nan
82 1 -nan -nan -nan
83 1 -nan -nan -nan
84 1 -nan -nan -nan
85 1 -nan -nan -nan
86 1 -nan -nan -nan
87 1 -nan -nan -nan
88 1 -nan -nan -nan
95 1 -nan -nan -nan
96 1 -nan -nan -nan
97 1 -nan -nan -nan
98 1 -nan -nan -nan
99 1 -nan -nan -nan
100 1 -nan -nan -nan
101 1 -nan -nan -nan
102 1 -nan -nan -nan
109 1 -nan -nan -nan
110 1 -nan -nan -nan
111 1 -nan -nan -nan
112 1 -nan -nan -nan
113 1 -nan -nan -nan
114 1 -nan -nan -nan
115 1 -nan -nan -nan
116 1 -nan -nan -nan
123 1 -nan -nan -nan
124 1 -nan -nan -nan
125 1 -nan -nan -nan
126 1 -nan -nan -nan
169 1 -nan -nan -nan
170 1 -nan -nan -nan
171 1 -nan -nan -nan
172 1 -nan -nan -nan
179 1 -nan -nan -nan
180 1 -nan -nan -nan
181 1 -nan -nan -nan
182 1 -nan -nan -nan
183 1 -nan -nan -nan
184 1 -nan -nan -nan
185 1 -nan -nan -nan
186 1 -nan -nan -nan
193 1 -nan -nan -nan
194 1 -nan -nan -nan
195 1 -nan -nan -nan
196 1 -nan -nan -nan
5 1 -nan -nan -nan
6 1 -nan -nan -nan
7 1 -nan -nan -nan
19 1 -nan -nan -nan
20 1 -nan -nan -nan
21 1 -nan -nan -nan
75 1 -nan -nan -nan
76 1 -nan -nan -nan
77 1 -nan -nan -nan
89 1 -nan -nan -nan
90 1 -nan -nan -nan
91 1 -nan -nan -nan
103 1 -nan -nan -nan
104 1 -nan -nan -nan
105 1 -nan -nan -nan
117 1 -nan -nan -nan
118 1 -nan -nan -nan
119 1 -nan -nan -nan
173 1 -nan -nan -nan
174 1 -nan -nan -nan
175 1 -nan -nan -nan
187 1 -nan -nan -nan
188 1 -nan -nan -nan
189 1 -nan -nan -nan
8 1 -nan -nan -nan
9 1 -nan -nan -nan
10 1 -nan -nan -nan
22 1 -nan -nan -nan
23 1 -nan -nan -nan
24 1 -nan -nan -nan
78 1 -nan -nan -nan
79 1 -nan -nan -nan
80 1 -nan -nan -nan
92 1 -nan -nan -nan
93 1 -nan -nan -nan
94 1 -nan -nan -nan
106 1 -nan -nan -nan
107 1 -nan -nan -nan
108 1 -nan -nan -nan
120 1 -nan -nan -nan
121 1 -nan -nan -nan
122 1 -nan -nan -nan
176 1 -nan -nan -nan
177 1 -nan -nan -nan
178 1 -nan -nan -nan
190 1 -nan -nan -nan
191 1 -nan -nan -nan
192 1 -nan -nan -nan
29 1 -nan -nan -nan
30 1 -nan -nan -nan
31 1 -nan -nan -nan
32 1 -nan -nan -nan
39 1 -nan -nan -nan
40 1 -nan -nan -nan
41 1 -nan -nan -nan
42 1 -nan -nan -nan
43 1 -nan -nan -nan
45 1 -nan -nan -nan
53 1 -nan -nan -nan
55 1 -nan -nan -nan
127 1 -nan -nan -nan
128 1 -nan -nan -nan
129 1 -nan -nan -nan
130 1 -nan -nan -nan
137 1 -nan -nan -nan
138 1 -nan -nan -nan