LAMMPS data file via write_data, version 29 Oct 2020, timestep = 1

1664 atoms
2 atom types

0.0 33.058 xlo xhi
0.0 33.058 ylo yhi
16.529 42.9754 zlo zhi

Masses

1 180.94788
2 15.999

Atoms # full

1 0 1 0.0 0.0 3.6500193021783114e-19 16.529035238973712 0 0 0
2 0 1 0.0 1.6529 1.6529 18.18186998458091 0 0 0
3 0 1 0.0 3.3058 3.598797857966927e-19 16.529035238973712 0 0 0
4 0 1 0.0 4.9587 1.6529 18.18186998458091 0 0 0
21 0 1 0.0 2.293980706893617e-19 3.3058 16.529035238973712 0 0 0
22 0 1 0.0 1.6529 4.9587 18.18186998458091 0 0 0
23 0 1 0.0 3.3058 3.3058 16.529035238973712 0 0 0
24 0 1 0.0 4.9587 4.9587 18.18186998458091 0 0 0
201 0 1 0.0 3.5149704379821554e-19 3.789693127477076e-19 19.83478542451401 0 0 0
202 0 1 0.0 1.6529 1.6529 21.48770252125257 0 0 0
203 0 1 0.0 3.3058 0.0 19.83478542451401 0 0 0
204 0 1 0.0 4.9587 1.6529 21.48770252125257 0 0 0
221 0 1 0.0 0.0 3.3058 19.83478542451401 0 0 0
222 0 1 0.0 1.6529 4.9587 21.48770252125257 0 0 0
223 0 1 0.0 3.3058 3.3058 19.83478542451401 0 0 0
224 0 1 0.0 4.9587 4.9587 21.48770252125257 0 0 0
401 0 1 0.0 0.0 3.3965714337553877e-19 23.140601250387874 0 0 0
403 0 1 0.0 3.3058 1.898084036510364e-19 23.140601250387874 0 0 0
421 0 1 0.0 2.508578902054633e-19 3.3058 23.140601250387874 0 0 0
423 0 1 0.0 3.3058 3.3058 23.140601250387874 0 0 0
5 0 1 0.0 6.6116 1.3615885486078242e-19 16.529035238973712 0 0 0
6 0 1 0.0 8.2645 1.6529 18.18186998458091 0 0 0
7 0 1 0.0 9.9174 3.5963697533880577e-19 16.529035238973712 0 0 0
25 0 1 0.0 6.6116 3.3058 16.529035238973712 0 0 0
26 0 1 0.0 8.2645 4.9587 18.18186998458091 0 0 0
27 0 1 0.0 9.9174 3.3058 16.529035238973712 0 0 0
205 0 1 0.0 6.6116 1.0345112994313795e-18 19.83478542451401 0 0 0
206 0 1 0.0 8.2645 1.6529 21.48770252125257 0 0 0
207 0 1 0.0 9.9174 4.2623641521636237e-19 19.83478542451401 0 0 0
225 0 1 0.0 6.6116 3.3058 19.83478542451401 0 0 0
226 0 1 0.0 8.2645 4.9587 21.48770252125257 0 0 0
227 0 1 0.0 9.9174 3.3058 19.83478542451401 0 0 0
405 0 1 0.0 6.6116 0.0 23.140601250387874 0 0 0
407 0 1 0.0 9.9174 4.410362907447083e-19 23.140601250387874 0 0 0
425 0 1 0.0 6.6116 3.3058 23.140601250387874 0 0 0
427 0 1 0.0 9.9174 3.3058 23.140601250387874 0 0 0
8 0 1 0.0 11.5703 1.6529 18.18186998458091 0 0 0
9 0 1 0.0 13.2232 2.9155754790841453e-19 16.529035238973712 0 0 0
10 0 1 0.0 14.876100000000001 1.6529 18.18186998458091 0 0 0
28 0 1 0.0 11.5703 4.9587 18.18186998458091 0 0 0
29 0 1 0.0 13.2232 3.3058 16.529035238973712 0 0 0
30 0 1 0.0 14.876100000000001 4.9587 18.18186998458091 0 0 0
208 0 1 0.0 11.5703 1.6529 21.48770252125257 0 0 0
209 0 1 0.0 13.2232 1.2920291336245985e-18 19.83478542451401 0 0 0
210 0 1 0.0 14.876100000000001 1.6529 21.48770252125257 0 0 0
228 0 1 0.0 11.5703 4.9587 21.48770252125257 0 0 0
229 0 1 0.0 13.2232 3.3058 19.83478542451401 0 0 0
230 0 1 0.0 14.876100000000001 4.9587 21.48770252125257 0 0 0
409 0 1 0.0 13.2232 3.381771558227042e-19 23.140601250387874 0 0 0
429 0 1 0.0 13.2232 3.3058 23.140601250387874 0 0 0
11 0 1 0.0 16.529 1.6427861836463967e-19 16.529035238973712 0 0 0
12 0 1 0.0 18.1819 1.6529 18.18186998458091 0 0 0
13 0 1 0.0 19.8348 2.6195779685172273e-19 16.529035238973712 0 0 0
14 0 1 0.0 21.4877 1.6529 18.18186998458091 0 0 0
31 0 1 0.0 16.529 3.3058 16.529035238973712 0 0 0
32 0 1 0.0 18.1819 4.9587 18.18186998458091 0 0 0
33 0 1 0.0 19.8348 3.3058 16.529035238973712 0 0 0
34 0 1 0.0 21.4877 4.9587 18.18186998458091 0 0 0
211 0 1 0.0 16.529 1.0145314674681127e-18 19.83478542451401 0 0 0
212 0 1 0.0 18.1819 1.6529 21.48770252125257 0 0 0
213 0 1 0.0 19.8348 4.72856023130652e-19 19.83478542451401 0 0 0
214 0 1 0.0 21.4877 1.6529 21.48770252125257 0 0 0
231 0 1 0.0 16.529 3.3058 19.83478542451401 0 0 0
232 0 1 0.0 18.1819 4.9587 21.48770252125257 0 0 0
233 0 1 0.0 19.8348 3.3058 19.83478542451401 0 0 0
234 0 1 0.0 21.4877 4.9587 21.48770252125257 0 0 0
411 0 1 0.0 16.529 1.0744709633579137e-18 23.140601250387874 0 0 0
413 0 1 0.0 19.8348 1.4725876150704187e-19 23.140601250387874 0 0 0
431 0 1 0.0 16.529 3.3058 23.140601250387874 0 0 0
433 0 1 0.0 19.8348 3.3058 23.140601250387874 0 0 0
15 0 1 0.0 23.1406 1.5095873038912835e-19 16.529035238973712 0 0 0
16 0 1 0.0 24.7935 1.6529 18.18186998458091 0 0 0
17 0 1 0.0 26.4464 1.5687864149654542e-19 16.529035238973712 0 0 0
35 0 1 0.0 23.1406 3.3058 16.529035238973712 0 0 0
36 0 1 0.0 24.7935 4.9587 18.18186998458091 0 0 0
37 0 1 0.0 26.4464 3.3058 16.529035238973712 0 0 0
215 0 1 0.0 23.1406 1.0493111749597254e-18 19.83478542451401 0 0 0
216 0 1 0.0 24.7935 1.6529 21.48770252125257 0 0 0
217 0 1 0.0 26.4464 5.960649762860236e-19 19.83478542451401 0 0 0
235 0 1 0.0 23.1406 3.3058 19.83478542451401 0 0 0
236 0 1 0.0 24.7935 4.9587 21.48770252125257 0 0 0
237 0 1 0.0 26.4464 3.3058 19.83478542451401 0 0 0
415 0 1 0.0 23.1406 1.6945857479956072e-19 23.140601250387874 0 0 0
417 0 1 0.0 26.4464 5.298355797961969e-19 23.140601250387874 0 0 0
435 0 1 0.0 23.1406 3.3058 23.140601250387874 0 0 0
437 0 1 0.0 26.4464 3.3058 23.140601250387874 0 0 0
18 0 1 0.0 28.0993 1.6529 18.18186998458091 0 0 0
19 0 1 0.0 29.752200000000002 2.3023056368783115e-19 16.529035238973712 0 0 0
20 0 1 0.0 31.4051 1.6529 18.18186998458091 0 0 0
38 0 1 0.0 28.0993 4.9587 18.18186998458091 0 0 0
39 0 1 0.0 29.752200000000002 3.3058 16.529035238973712 0 0 0
40 0 1 0.0 31.4051 4.9587 18.18186998458091 0 0 0
218 0 1 0.0 28.0993 1.6529 21.48770252125257 0 0 0
219 0 1 0.0 29.752200000000002 4.641610962577488e-19 19.83478542451401 0 0 0
220 0 1 0.0 31.4051 1.6529 21.48770252125257 0 0 0
238 0 1 0.0 28.0993 4.9587 21.48770252125257 0 0 0
239 0 1 0.0 29.752200000000002 3.3058 19.83478542451401 0 0 0
240 0 1 0.0 31.4051 4.9587 21.48770252125257 0 0 0
419 0 1 0.0 29.752200000000002 1.6094864637076185e-19 23.140601250387874 0 0 0
439 0 1 0.0 29.752200000000002 3.3058 23.140601250387874 0 0 0
41 0 1 0.0 0.0 6.6116 16.529035238973712 0 0 0
42 0 1 0.0 1.6529 8.2645 18.18186998458091 0 0 0
43 0 1 0.0 3.3058 6.6116 16.529035238973712 0 0 0
44 0 1 0.0 4.9587 8.2645 18.18186998458091 0 0 0
61 0 1 0.0 9.323921582857927e-20 9.9174 16.529035238973712 0 0 0
63 0 1 0.0 3.3058 9.9174 16.529035238973712 0 0 0
241 0 1 0.0 9.083423605522305e-19 6.6116 19.83478542451401 0 0 0
242 0 1 0.0 1.6529 8.2645 21.48770252125257 0 0 0
243 0 1 0.0 3.3058 6.6116 19.83478542451401 0 0 0
244 0 1 0.0 4.9587 8.2645 21.48770252125257 0 0 0
261 0 1 0.0 0.0 9.9174 19.83478542451401 0 0 0
263 0 1 0.0 3.3058 9.9174 19.83478542451401 0 0 0
441 0 1 0.0 0.0 6.6116 23.140601250387874 0 0 0
443 0 1 0.0 3.3058 6.6116 23.140601250387874 0 0 0
461 0 1 0.0 2.9155754790841453e-19 9.9174 23.140601250387874 0 0 0
463 0 1 0.0 3.3058 9.9174 23.140601250387874 0 0 0
45 0 1 0.0 6.6116 6.6116 16.529035238973712 0 0 0
46 0 1 0.0 8.2645 8.2645 18.18186998458091 0 0 0
47 0 1 0.0 9.9174 6.6116 16.529035238973712 0 0 0
65 0 1 0.0 6.6116 9.9174 16.529035238973712 0 0 0
67 0 1 0.0 9.9174 9.9174 16.529035238973712 0 0 0
245 0 1 0.0 6.6116 6.6116 19.83478542451401 0 0 0
246 0 1 0.0 8.2645 8.2645 21.48770252125257 0 0 0
247 0 1 0.0 9.9174 6.6116 19.83478542451401 0 0 0
265 0 1 0.0 6.6116 9.9174 19.83478542451401 0 0 0
267 0 1 0.0 9.9174 9.9174 19.83478542451401 0 0 0
445 0 1 0.0 6.6116 6.6116 23.140601250387874 0 0 0
447 0 1 0.0 9.9174 6.6116 23.140601250387874 0 0 0
465 0 1 0.0 6.6116 9.9174 23.140601250387874 0 0 0
467 0 1 0.0 9.9174 9.9174 23.140601250387874 0 0 0
48 0 1 0.0 11.5703 8.2645 18.18186998458091 0 0 0
49 0 1 0.0 13.2232 6.6116 16.529035238973712 0 0 0
50 0 1 0.0 14.876100000000001 8.2645 18.18186998458091 0 0 0
69 0 1 0.0 13.2232 9.9174 16.529035238973712 0 0 0
248 0 1 0.0 11.5703 8.2645 21.48770252125257 0 0 0
249 0 1 0.0 13.2232 6.6116 19.83478542451401 0 0 0
250 0 1 0.0 14.876100000000001 8.2645 21.48770252125257 0 0 0
269 0 1 0.0 13.2232 9.9174 19.83478542451401 0 0 0
449 0 1 0.0 13.2232 6.6116 23.140601250387874 0 0 0
469 0 1 0.0 13.2232 9.9174 23.140601250387874 0 0 0
51 0 1 0.0 16.529 6.6116 16.529035238973712 0 0 0
52 0 1 0.0 18.1819 8.2645 18.18186998458091 0 0 0
53 0 1 0.0 19.8348 6.6116 16.529035238973712 0 0 0
54 0 1 0.0 21.4877 8.2645 18.18186998458091 0 0 0
71 0 1 0.0 16.529 9.9174 16.529035238973712 0 0 0
73 0 1 0.0 19.8348 9.9174 16.529035238973712 0 0 0
251 0 1 0.0 16.529 6.6116 19.83478542451401 0 0 0
252 0 1 0.0 18.1819 8.2645 21.48770252125257 0 0 0
253 0 1 0.0 19.8348 6.6116 19.83478542451401 0 0 0
254 0 1 0.0 21.4877 8.2645 21.48770252125257 0 0 0
271 0 1 0.0 16.529 9.9174 19.83478542451401 0 0 0
273 0 1 0.0 19.8348 9.9174 19.83478542451401 0 0 0
451 0 1 0.0 16.529 6.6116 23.140601250387874 0 0 0
453 0 1 0.0 19.8348 6.6116 23.140601250387874 0 0 0
471 0 1 0.0 16.529 9.9174 23.140601250387874 0 0 0
473 0 1 0.0 19.8348 9.9174 23.140601250387874 0 0 0
55 0 1 0.0 23.1406 6.6116 16.529035238973712 0 0 0
56 0 1 0.0 24.7935 8.2645 18.18186998458091 0 0 0
57 0 1 0.0 26.4464 6.6116 16.529035238973712 0 0 0
75 0 1 0.0 23.1406 9.9174 16.529035238973712 0 0 0
77 0 1 0.0 26.4464 9.9174 16.529035238973712 0 0 0
255 0 1 0.0 23.1406 6.6116 19.83478542451401 0 0 0
256 0 1 0.0 24.7935 8.2645 21.48770252125257 0 0 0
257 0 1 0.0 26.4464 6.6116 19.83478542451401 0 0 0
275 0 1 0.0 23.1406 9.9174 19.83478542451401 0 0 0
277 0 1 0.0 26.4464 9.9174 19.83478542451401 0 0 0
455 0 1 0.0 23.1406 6.6116 23.140601250387874 0 0 0
457 0 1 0.0 26.4464 6.6116 23.140601250387874 0 0 0
475 0 1 0.0 23.1406 9.9174 23.140601250387874 0 0 0
477 0 1 0.0 26.4464 9.9174 23.140601250387874 0 0 0
58 0 1 0.0 28.0993 8.2645 18.18186998458091 0 0 0
59 0 1 0.0 29.752200000000002 6.6116 16.529035238973712 0 0 0
60 0 1 0.0 31.4051 8.2645 18.18186998458091 0 0 0
79 0 1 0.0 29.752200000000002 9.9174 16.529035238973712 0 0 0
258 0 1 0.0 28.0993 8.2645 21.48770252125257 0 0 0
259 0 1 0.0 29.752200000000002 6.6116 19.83478542451401 0 0 0
260 0 1 0.0 31.4051 8.2645 21.48770252125257 0 0 0
279 0 1 0.0 29.752200000000002 9.9174 19.83478542451401 0 0 0
459 0 1 0.0 29.752200000000002 6.6116 23.140601250387874 0 0 0
479 0 1 0.0 29.752200000000002 9.9174 23.140601250387874 0 0 0
62 0 1 0.0 1.6529 11.5703 18.18186998458091 0 0 0
64 0 1 0.0 4.9587 11.5703 18.18186998458091 0 0 0
81 0 1 0.0 8.139931540590254e-20 13.2232 16.529035238973712 0 0 0
82 0 1 0.0 1.6529 14.876100000000001 18.18186998458091 0 0 0
83 0 1 0.0 3.3058 13.2232 16.529035238973712 0 0 0
84 0 1 0.0 4.9587 14.876100000000001 18.18186998458091 0 0 0
262 0 1 0.0 1.6529 11.5703 21.48770252125257 0 0 0
264 0 1 0.0 4.9587 11.5703 21.48770252125257 0 0 0
281 0 1 0.0 2.527078746465065e-19 13.2232 19.83478542451401 0 0 0
282 0 1 0.0 1.6529 14.876100000000001 21.48770252125257 0 0 0
283 0 1 0.0 3.3058 13.2232 19.83478542451401 0 0 0
284 0 1 0.0 4.9587 14.876100000000001 21.48770252125257 0 0 0
481 0 1 0.0 0.0 13.2232 23.140601250387874 0 0 0
483 0 1 0.0 3.3058 13.2232 23.140601250387874 0 0 0
66 0 1 0.0 8.2645 11.5703 18.18186998458091 0 0 0
85 0 1 0.0 6.6116 13.2232 16.529035238973712 0 0 0
86 0 1 0.0 8.2645 14.876100000000001 18.18186998458091 0 0 0
87 0 1 0.0 9.9174 13.2232 16.529035238973712 0 0 0
266 0 1 0.0 8.2645 11.5703 21.48770252125257 0 0 0
285 0 1 0.0 6.6116 13.2232 19.83478542451401 0 0 0
286 0 1 0.0 8.2645 14.876100000000001 21.48770252125257 0 0 0
287 0 1 0.0 9.9174 13.2232 19.83478542451401 0 0 0
485 0 1 0.0 6.6116 13.2232 23.140601250387874 0 0 0
487 0 1 0.0 9.9174 13.2232 23.140601250387874 0 0 0
68 0 1 0.0 11.5703 11.5703 18.18186998458091 0 0 0
70 0 1 0.0 14.876100000000001 11.5703 18.18186998458091 0 0 0
88 0 1 0.0 11.5703 14.876100000000001 18.18186998458091 0 0 0
89 0 1 0.0 13.2232 13.2232 16.529035238973712 0 0 0
90 0 1 0.0 14.876100000000001 14.876100000000001 18.18186998458091 0 0 0
268 0 1 0.0 11.5703 11.5703 21.48770252125257 0 0 0
270 0 1 0.0 14.876100000000001 11.5703 21.48770252125257 0 0 0
288 0 1 0.0 11.5703 14.876100000000001 21.48770252125257 0 0 0
289 0 1 0.0 13.2232 13.2232 19.83478542451401 0 0 0
290 0 1 0.0 14.876100000000001 14.876100000000001 21.48770252125257 0 0 0
489 0 1 0.0 13.2232 13.2232 23.140601250387874 0 0 0
72 0 1 0.0 18.1819 11.5703 18.18186998458091 0 0 0
74 0 1 0.0 21.4877 11.5703 18.18186998458091 0 0 0
91 0 1 0.0 16.529 13.2232 16.529035238973712 0 0 0
92 0 1 0.0 18.1819 14.876100000000001 18.18186998458091 0 0 0
93 0 1 0.0 19.8348 13.2232 16.529035238973712 0 0 0
94 0 1 0.0 21.4877 14.876100000000001 18.18186998458091 0 0 0
272 0 1 0.0 18.1819 11.5703 21.48770252125257 0 0 0
274 0 1 0.0 21.4877 11.5703 21.48770252125257 0 0 0
291 0 1 0.0 16.529 13.2232 19.83478542451401 0 0 0
292 0 1 0.0 18.1819 14.876100000000001 21.48770252125257 0 0 0
293 0 1 0.0 19.8348 13.2232 19.83478542451401 0 0 0
294 0 1 0.0 21.4877 14.876100000000001 21.48770252125257 0 0 0
491 0 1 0.0 16.529 13.2232 23.140601250387874 0 0 0
493 0 1 0.0 19.8348 13.2232 23.140601250387874 0 0 0
76 0 1 0.0 24.7935 11.5703 18.18186998458091 0 0 0
95 0 1 0.0 23.1406 13.2232 16.529035238973712 0 0 0
96 0 1 0.0 24.7935 14.876100000000001 18.18186998458091 0 0 0
97 0 1 0.0 26.4464 13.2232 16.529035238973712 0 0 0
276 0 1 0.0 24.7935 11.5703 21.48770252125257 0 0 0
295 0 1 0.0 23.1406 13.2232 19.83478542451401 0 0 0
296 0 1 0.0 24.7935 14.876100000000001 21.48770252125257 0 0 0
297 0 1 0.0 26.4464 13.2232 19.83478542451401 0 0 0
495 0 1 0.0 23.1406 13.2232 23.140601250387874 0 0 0
497 0 1 0.0 26.4464 13.2232 23.140601250387874 0 0 0
78 0 1 0.0 28.0993 11.5703 18.18186998458091 0 0 0
80 0 1 0.0 31.4051 11.5703 18.18186998458091 0 0 0
98 0 1 0.0 28.0993 14.876100000000001 18.18186998458091 0 0 0
99 0 1 0.0 29.752200000000002 13.2232 16.529035238973712 0 0 0
100 0 1 0.0 31.4051 14.876100000000001 18.18186998458091 0 0 0
278 0 1 0.0 28.0993 11.5703 21.48770252125257 0 0 0
280 0 1 0.0 31.4051 11.5703 21.48770252125257 0 0 0
298 0 1 0.0 28.0993 14.876100000000001 21.48770252125257 0 0 0
299 0 1 0.0 29.752200000000002 13.2232 19.83478542451401 0 0 0
300 0 1 0.0 31.4051 14.876100000000001 21.48770252125257 0 0 0
499 0 1 0.0 29.752200000000002 13.2232 23.140601250387874 0 0 0
101 0 1 0.0 0.0 16.529 16.529035238973712 0 0 0
102 0 1 0.0 1.6529 18.1819 18.18186998458091 0 0 0
103 0 1 0.0 3.3058 16.529 16.529035238973712 0 0 0
104 0 1 0.0 4.9587 18.1819 18.18186998458091 0 0 0
121 0 1 0.0 1.4651876773062456e-19 19.8348 16.529035238973712 0 0 0
122 0 1 0.0 1.6529 21.4877 18.18186998458091 0 0 0
123 0 1 0.0 3.3058 19.8348 16.529035238973712 0 0 0
124 0 1 0.0 4.9587 21.4877 18.18186998458091 0 0 0
301 0 1 0.0 1.6094864637076185e-19 16.529 19.83478542451401 0 0 0
302 0 1 0.0 1.6529 18.1819 21.48770252125257 0 0 0
303 0 1 0.0 3.3058 16.529 19.83478542451401 0 0 0
304 0 1 0.0 4.9587 18.1819 21.48770252125257 0 0 0
321 0 1 0.0 0.0 19.8348 19.83478542451401 0 0 0
322 0 1 0.0 1.6529 21.4877 21.48770252125257 0 0 0
323 0 1 0.0 3.3058 19.8348 19.83478542451401 0 0 0
324 0 1 0.0 4.9587 21.4877 21.48770252125257 0 0 0
501 0 1 0.0 4.425162782975429e-19 16.529 23.140601250387874 0 0 0
503 0 1 0.0 3.3058 16.529 23.140601250387874 0 0 0
521 0 1 0.0 0.0 19.8348 23.140601250387874 0 0 0
523 0 1 0.0 3.3058 19.8348 23.140601250387874 0 0 0
105 0 1 0.0 6.6116 16.529 16.529035238973712 0 0 0
106 0 1 0.0 8.2645 18.1819 18.18186998458091 0 0 0
107 0 1 0.0 9.9174 16.529 16.529035238973712 0 0 0
125 0 1 0.0 6.6116 19.8348 16.529035238973712 0 0 0
126 0 1 0.0 8.2645 21.4877 18.18186998458091 0 0 0
127 0 1 0.0 9.9174 19.8348 16.529035238973712 0 0 0
305 0 1 0.0 6.6116 16.529 19.83478542451401 0 0 0
306 0 1 0.0 8.2645 18.1819 21.48770252125257 0 0 0
307 0 1 0.0 9.9174 16.529 19.83478542451401 0 0 0
325 0 1 0.0 6.6116 19.8348 19.83478542451401 0 0 0
326 0 1 0.0 8.2645 21.4877 21.48770252125257 0 0 0
327 0 1 0.0 9.9174 19.8348 19.83478542451401 0 0 0
505 0 1 0.0 6.6116 16.529 23.140601250387874 0 0 0
507 0 1 0.0 9.9174 16.529 23.140601250387874 0 0 0
525 0 1 0.0 6.6116 19.8348 23.140601250387874 0 0 0
527 0 1 0.0 9.9174 19.8348 23.140601250387874 0 0 0
108 0 1 0.0 11.5703 18.1819 18.18186998458091 0 0 0
109 0 1 0.0 13.2232 16.529 16.529035238973712 0 0 0
110 0 1 0.0 14.876100000000001 18.1819 18.18186998458091 0 0 0
128 0 1 0.0 11.5703 21.4877 18.18186998458091 0 0 0
129 0 1 0.0 13.2232 19.8348 16.529035238973712 0 0 0
130 0 1 0.0 14.876100000000001 21.4877 18.18186998458091 0 0 0
308 0 1 0.0 11.5703 18.1819 21.48770252125257 0 0 0
309 0 1 0.0 13.2232 16.529 19.83478542451401 0 0 0
310 0 1 0.0 14.876100000000001 18.1819 21.48770252125257 0 0 0
328 0 1 0.0 11.5703 21.4877 21.48770252125257 0 0 0
329 0 1 0.0 13.2232 19.8348 19.83478542451401 0 0 0
330 0 1 0.0 14.876100000000001 21.4877 21.48770252125257 0 0 0
509 0 1 0.0 13.2232 16.529 23.140601250387874 0 0 0
529 0 1 0.0 13.2232 19.8348 23.140601250387874 0 0 0
111 0 1 0.0 16.529 16.529 16.529035238973712 0 0 0
112 0 1 0.0 18.1819 18.1819 18.18186998458091 0 0 0
113 0 1 0.0 19.8348 16.529 16.529035238973712 0 0 0
114 0 1 0.0 21.4877 18.1819 18.18186998458091 0 0 0
131 0 1 0.0 16.529 19.8348 16.529035238973712 0 0 0
132 0 1 0.0 18.1819 21.4877 18.18186998458091 0 0 0
133 0 1 0.0 19.8348 19.8348 16.529035238973712 0 0 0
134 0 1 0.0 21.4877 21.4877 18.18186998458091 0 0 0
311 0 1 0.0 16.529 16.529 19.83478542451401 0 0 0
312 0 1 0.0 18.1819 18.1819 21.48770252125257 0 0 0
313 0 1 0.0 19.8348 16.529 19.83478542451401 0 0 0
314 0 1 0.0 21.4877 18.1819 21.48770252125257 0 0 0
331 0 1 0.0 16.529 19.8348 19.83478542451401 0 0 0
332 0 1 0.0 18.1819 21.4877 21.48770252125257 0 0 0
333 0 1 0.0 19.8348 19.8348 19.83478542451401 0 0 0
334 0 1 0.0 21.4877 21.4877 21.48770252125257 0 0 0
511 0 1 0.0 16.529 16.529 23.140601250387874 0 0 0
513 0 1 0.0 19.8348 16.529 23.140601250387874 0 0 0
531 0 1 0.0 16.529 19.8348 23.140601250387874 0 0 0
533 0 1 0.0 19.8348 19.8348 23.140601250387874 0 0 0
115 0 1 0.0 23.1406 16.529 16.529035238973712 0 0 0
116 0 1 0.0 24.7935 18.1819 18.18186998458091 0 0 0
117 0 1 0.0 26.4464 16.529 16.529035238973712 0 0 0
135 0 1 0.0 23.1406 19.8348 16.529035238973712 0 0 0
136 0 1 0.0 24.7935 21.4877 18.18186998458091 0 0 0
137 0 1 0.0 26.4464 19.8348 16.529035238973712 0 0 0
315 0 1 0.0 23.1406 16.529 19.83478542451401 0 0 0
316 0 1 0.0 24.7935 18.1819 21.48770252125257 0 0 0
317 0 1 0.0 26.4464 16.529 19.83478542451401 0 0 0
335 0 1 0.0 23.1406 19.8348 19.83478542451401 0 0 0
336 0 1 0.0 24.7935 21.4877 21.48770252125257 0 0 0
337 0 1 0.0 26.4464 19.8348 19.83478542451401 0 0 0
515 0 1 0.0 23.1406 16.529 23.140601250387874 0 0 0
517 0 1 0.0 26.4464 16.529 23.140601250387874 0 0 0
535 0 1 0.0 23.1406 19.8348 23.140601250387874 0 0 0
537 0 1 0.0 26.4464 19.8348 23.140601250387874 0 0 0
118 0 1 0.0 28.0993 18.1819 18.18186998458091 0 0 0
119 0 1 0.0 29.752200000000002 16.529 16.529035238973712 0 0 0
120 0 1 0.0 31.4051 18.1819 18.18186998458091 0 0 0
138 0 1 0.0 28.0993 21.4877 18.18186998458091 0 0 0
139 0 1 0.0 29.752200000000002 19.8348 16.529035238973712 0 0 0
140 0 1 0.0 31.4051 21.4877 18.18186998458091 0 0 0
318 0 1 0.0 28.0993 18.1819 21.48770252125257 0 0 0
319 0 1 0.0 29.752200000000002 16.529 19.83478542451401 0 0 0
320 0 1 0.0 31.4051 18.1819 21.48770252125257 0 0 0
338 0 1 0.0 28.0993 21.4877 21.48770252125257 0 0 0
339 0 1 0.0 29.752200000000002 19.8348 19.83478542451401 0 0 0
340 0 1 0.0 31.4051 21.4877 21.48770252125257 0 0 0
519 0 1 0.0 29.752200000000002 16.529 23.140601250387874 0 0 0
539 0 1 0.0 29.752200000000002 19.8348 23.140601250387874 0 0 0
141 0 1 0.0 0.0 23.1406 16.529035238973712 0 0 0
142 0 1 0.0 1.6529 24.7935 18.18186998458091 0 0 0
143 0 1 0.0 3.3058 23.1406 16.529035238973712 0 0 0
144 0 1 0.0 4.9587 24.7935 18.18186998458091 0 0 0
161 0 1 0.0 0.0 26.4464 16.529035238973712 0 0 0
163 0 1 0.0 3.3058 26.4464 16.529035238973712 0 0 0
341 0 1 0.0 5.849650802578724e-19 23.1406 19.83478542451401 0 0 0
342 0 1 0.0 1.6529 24.7935 21.48770252125257 0 0 0
343 0 1 0.0 3.3058 23.1406 19.83478542451401 0 0 0
344 0 1 0.0 4.9587 24.7935 21.48770252125257 0 0 0
361 0 1 0.0 0.0 26.4464 19.83478542451401 0 0 0
363 0 1 0.0 3.3058 26.4464 19.83478542451401 0 0 0
541 0 1 0.0 0.0 23.1406 23.140601250387874 0 0 0
543 0 1 0.0 3.3058 23.1406 23.140601250387874 0 0 0
561 0 1 0.0 6.193747908612765e-19 26.4464 23.140601250387874 0 0 0
563 0 1 0.0 3.3058 26.4464 23.140601250387874 0 0 0
145 0 1 0.0 6.6116 23.1406 16.529035238973712 0 0 0
146 0 1 0.0 8.2645 24.7935 18.18186998458091 0 0 0
147 0 1 0.0 9.9174 23.1406 16.529035238973712 0 0 0
165 0 1 0.0 6.6116 26.4464 16.529035238973712 0 0 0
167 0 1 0.0 9.9174 26.4464 16.529035238973712 0 0 0
345 0 1 0.0 6.6116 23.1406 19.83478542451401 0 0 0
346 0 1 0.0 8.2645 24.7935 21.48770252125257 0 0 0
347 0 1 0.0 9.9174 23.1406 19.83478542451401 0 0 0
365 0 1 0.0 6.6116 26.4464 19.83478542451401 0 0 0
367 0 1 0.0 9.9174 26.4464 19.83478542451401 0 0 0
545 0 1 0.0 6.6116 23.1406 23.140601250387874 0 0 0
547 0 1 0.0 9.9174 23.1406 23.140601250387874 0 0 0
565 0 1 0.0 6.6116 26.4464 23.140601250387874 0 0 0
567 0 1 0.0 9.9174 26.4464 23.140601250387874 0 0 0
148 0 1 0.0 11.5703 24.7935 18.18186998458091 0 0 0
149 0 1 0.0 13.2232 23.1406 16.529035238973712 0 0 0
150 0 1 0.0 14.876100000000001 24.7935 18.18186998458091 0 0 0
169 0 1 0.0 13.2232 26.4464 16.529035238973712 0 0 0
348 0 1 0.0 11.5703 24.7935 21.48770252125257 0 0 0
349 0 1 0.0 13.2232 23.1406 19.83478542451401 0 0 0
350 0 1 0.0 14.876100000000001 24.7935 21.48770252125257 0 0 0
369 0 1 0.0 13.2232 26.4464 19.83478542451401 0 0 0
549 0 1 0.0 13.2232 23.1406 23.140601250387874 0 0 0
569 0 1 0.0 13.2232 26.4464 23.140601250387874 0 0 0
151 0 1 0.0 16.529 23.1406 16.529035238973712 0 0 0
152 0 1 0.0 18.1819 24.7935 18.18186998458091 0 0 0
153 0 1 0.0 19.8348 23.1406 16.529035238973712 0 0 0
154 0 1 0.0 21.4877 24.7935 18.18186998458091 0 0 0
171 0 1 0.0 16.529 26.4464 16.529035238973712 0 0 0
173 0 1 0.0 19.8348 26.4464 16.529035238973712 0 0 0
351 0 1 0.0 16.529 23.1406 19.83478542451401 0 0 0
352 0 1 0.0 18.1819 24.7935 21.48770252125257 0 0 0
353 0 1 0.0 19.8348 23.1406 19.83478542451401 0 0 0
354 0 1 0.0 21.4877 24.7935 21.48770252125257 0 0 0
371 0 1 0.0 16.529 26.4464 19.83478542451401 0 0 0
373 0 1 0.0 19.8348 26.4464 19.83478542451401 0 0 0
551 0 1 0.0 16.529 23.1406 23.140601250387874 0 0 0
553 0 1 0.0 19.8348 23.1406 23.140601250387874 0 0 0
571 0 1 0.0 16.529 26.4464 23.140601250387874 0 0 0
573 0 1 0.0 19.8348 26.4464 23.140601250387874 0 0 0
155 0 1 0.0 23.1406 23.1406 16.529035238973712 0 0 0
156 0 1 0.0 24.7935 24.7935 18.18186998458091 0 0 0
157 0 1 0.0 26.4464 23.1406 16.529035238973712 0 0 0
175 0 1 0.0 23.1406 26.4464 16.529035238973712 0 0 0
177 0 1 0.0 26.4464 26.4464 16.529035238973712 0 0 0
355 0 1 0.0 23.1406 23.1406 19.83478542451401 0 0 0
356 0 1 0.0 24.7935 24.7935 21.48770252125257 0 0 0
357 0 1 0.0 26.4464 23.1406 19.83478542451401 0 0 0
375 0 1 0.0 23.1406 26.4464 19.83478542451401 0 0 0
377 0 1 0.0 26.4464 26.4464 19.83478542451401 0 0 0
555 0 1 0.0 23.1406 23.1406 23.140601250387874 0 0 0
557 0 1 0.0 26.4464 23.1406 23.140601250387874 0 0 0
575 0 1 0.0 23.1406 26.4464 23.140601250387874 0 0 0
577 0 1 0.0 26.4464 26.4464 23.140601250387874 0 0 0
158 0 1 0.0 28.0993 24.7935 18.18186998458091 0 0 0
159 0 1 0.0 29.752200000000002 23.1406 16.529035238973712 0 0 0
160 0 1 0.0 31.4051 24.7935 18.18186998458091 0 0 0
179 0 1 0.0 29.752200000000002 26.4464 16.529035238973712 0 0 0
358 0 1 0.0 28.0993 24.7935 21.48770252125257 0 0 0
359 0 1 0.0 29.752200000000002 23.1406 19.83478542451401 0 0 0
360 0 1 0.0 31.4051 24.7935 21.48770252125257 0 0 0
379 0 1 0.0 29.752200000000002 26.4464 19.83478542451401 0 0 0
559 0 1 0.0 29.752200000000002 23.1406 23.140601250387874 0 0 0
579 0 1 0.0 29.752200000000002 26.4464 23.140601250387874 0 0 0
162 0 1 0.0 1.6529 28.0993 18.18186998458091 0 0 0
164 0 1 0.0 4.9587 28.0993 18.18186998458091 0 0 0
181 0 1 0.0 1.5243871794196292e-19 29.752200000000002 16.529035238973712 0 0 0
182 0 1 0.0 1.6529 31.4051 18.18186998458091 0 0 0
183 0 1 0.0 3.3058 29.752200000000002 16.529035238973712 0 0 0
184 0 1 0.0 4.9587 31.4051 18.18186998458091 0 0 0
362 0 1 0.0 1.6529 28.0993 21.48770252125257 0 0 0
364 0 1 0.0 4.9587 28.0993 21.48770252125257 0 0 0
381 0 1 0.0 0.0 29.752200000000002 19.83478542451401 0 0 0
382 0 1 0.0 1.6529 31.4051 21.48770252125257 0 0 0
383 0 1 0.0 3.3058 29.752200000000002 19.83478542451401 0 0 0
384 0 1 0.0 4.9587 31.4051 21.48770252125257 0 0 0
581 0 1 0.0 0.0 29.752200000000002 23.140601250387874 0 0 0
583 0 1 0.0 3.3058 29.752200000000002 23.140601250387874 0 0 0
166 0 1 0.0 8.2645 28.0993 18.18186998458091 0 0 0
185 0 1 0.0 6.6116 29.752200000000002 16.529035238973712 0 0 0
186 0 1 0.0 8.2645 31.4051 18.18186998458091 0 0 0
187 0 1 0.0 9.9174 29.752200000000002 16.529035238973712 0 0 0
366 0 1 0.0 8.2645 28.0993 21.48770252125257 0 0 0
385 0 1 0.0 6.6116 29.752200000000002 19.83478542451401 0 0 0
386 0 1 0.0 8.2645 31.4051 21.48770252125257 0 0 0
387 0 1 0.0 9.9174 29.752200000000002 19.83478542451401 0 0 0
585 0 1 0.0 6.6116 29.752200000000002 23.140601250387874 0 0 0
587 0 1 0.0 9.9174 29.752200000000002 23.140601250387874 0 0 0
168 0 1 0.0 11.5703 28.0993 18.18186998458091 0 0 0
170 0 1 0.0 14.876100000000001 28.0993 18.18186998458091 0 0 0
188 0 1 0.0 11.5703 31.4051 18.18186998458091 0 0 0
189 0 1 0.0 13.2232 29.752200000000002 16.529035238973712 0 0 0
190 0 1 0.0 14.876100000000001 31.4051 18.18186998458091 0 0 0
368 0 1 0.0 11.5703 28.0993 21.48770252125257 0 0 0
370 0 1 0.0 14.876100000000001 28.0993 21.48770252125257 0 0 0
388 0 1 0.0 11.5703 31.4051 21.48770252125257 0 0 0
389 0 1 0.0 13.2232 29.752200000000002 19.83478542451401 0 0 0
390 0 1 0.0 14.876100000000001 31.4051 21.48770252125257 0 0 0
589 0 1 0.0 13.2232 29.752200000000002 23.140601250387874 0 0 0
172 0 1 0.0 18.1819 28.0993 18.18186998458091 0 0 0
174 0 1 0.0 21.4877 28.0993 18.18186998458091 0 0 0
191 0 1 0.0 16.529 29.752200000000002 16.529035238973712 0 0 0
192 0 1 0.0 18.1819 31.4051 18.18186998458091 0 0 0
193 0 1 0.0 19.8348 29.752200000000002 16.529035238973712 0 0 0
194 0 1 0.0 21.4877 31.4051 18.18186998458091 0 0 0
372 0 1 0.0 18.1819 28.0993 21.48770252125257 0 0 0
374 0 1 0.0 21.4877 28.0993 21.48770252125257 0 0 0
391 0 1 0.0 16.529 29.752200000000002 19.83478542451401 0 0 0
392 0 1 0.0 18.1819 31.4051 21.48770252125257 0 0 0
393 0 1 0.0 19.8348 29.752200000000002 19.83478542451401 0 0 0
394 0 1 0.0 21.4877 31.4051 21.48770252125257 0 0 0
591 0 1 0.0 16.529 29.752200000000002 23.140601250387874 0 0 0
593 0 1 0.0 19.8348 29.752200000000002 23.140601250387874 0 0 0
176 0 1 0.0 24.7935 28.0993 18.18186998458091 0 0 0
195 0 1 0.0 23.1406 29.752200000000002 16.529035238973712 0 0 0
196 0 1 0.0 24.7935 31.4051 18.18186998458091 0 0 0
197 0 1 0.0 26.4464 29.752200000000002 16.529035238973712 0 0 0
376 0 1 0.0 24.7935 28.0993 21.48770252125257 0 0 0
395 0 1 0.0 23.1406 29.752200000000002 19.83478542451401 0 0 0
396 0 1 0.0 24.7935 31.4051 21.48770252125257 0 0 0
397 0 1 0.0 26.4464 29.752200000000002 19.83478542451401 0 0 0
595 0 1 0.0 23.1406 29.752200000000002 23.140601250387874 0 0 0
597 0 1 0.0 26.4464 29.752200000000002 23.140601250387874 0 0 0
178 0 1 0.0 28.0993 28.0993 18.18186998458091 0 0 0
180 0 1 0.0 31.4051 28.0993 18.18186998458091 0 0 0
198 0 1 0.0 28.0993 31.4051 18.18186998458091 0 0 0
199 0 1 0.0 29.752200000000002 29.752200000000002 16.529035238973712 0 0 0
200 0 1 0.0 31.4051 31.4051 18.18186998458091 0 0 0
378 0 1 0.0 28.0993 28.0993 21.48770252125257 0 0 0
380 0 1 0.0 31.4051 28.0993 21.48770252125257 0 0 0
398 0 1 0.0 28.0993 31.4051 21.48770252125257 0 0 0
399 0 1 0.0 29.752200000000002 29.752200000000002 19.83478542451401 0 0 0
400 0 1 0.0 31.4051 31.4051 21.48770252125257 0 0 0
599 0 1 0.0 29.752200000000002 29.752200000000002 23.140601250387874 0 0 0
402 0 1 0.0 1.6529 1.6529 24.79350075955647 0 0 0
404 0 1 0.0 4.9587 1.6529 24.79350075955647 0 0 0
422 0 1 0.0 1.6529 4.9587 24.79350075955647 0 0 0
424 0 1 0.0 4.9587 4.9587 24.79350075955647 0 0 0
601 0 1 0.0 33.05799999931622 33.05799999836306 26.44640010027733 -1 -1 0
602 0 1 0.0 1.6528998927893257 1.6528999023909157 28.099300768944797 0 0 0
603 0 1 0.0 3.305800014495766 3.027769597438421e-09 26.44640005251909 0 0 0
604 0 1 0.0 4.958700080126183 1.6528998271232884 28.099301188841462 0 0 0
621 0 1 0.0 33.0579999986355 3.3058000225471975 26.446400060158663 -1 0 0
622 0 1 0.0 1.6528997283898825 4.958700158354028 28.099301197410746 0 0 0
623 0 1 0.0 3.3058000125795477 3.3058000110723462 26.446400039723216 0 0 0
624 0 1 0.0 4.958700137688888 4.958700064842024 28.09930174826146 0 0 0
406 0 1 0.0 8.2645 1.6529 24.79350075955647 0 0 0
426 0 1 0.0 8.2645 4.9587 24.79350075955647 0 0 0
605 0 1 0.0 6.611599986251679 3.5125561574083215e-09 26.446400060511166 0 0 0
606 0 1 0.0 8.264499971256047 1.6528999041205712 28.099300580624075 0 0 0
607 0 1 0.0 9.917400014355655 33.05799999649088 26.44640006399605 0 -1 0
625 0 1 0.0 6.611599989134331 3.3058000159206684 26.44640005597686 0 0 0
626 0 1 0.0 8.264499951485984 4.958700074832705 28.09930082697686 0 0 0
627 0 1 0.0 9.9174 3.3058 26.44640000260399 0 0 0
408 0 1 0.0 11.5703 1.6529 24.79350075955647 0 0 0
410 0 1 0.0 14.876100000000001 1.6529 24.79350075955647 0 0 0
428 0 1 0.0 11.5703 4.9587 24.79350075955647 0 0 0
430 0 1 0.0 14.876100000000001 4.9587 24.79350075955647 0 0 0
608 0 1 0.0 11.570299938684421 1.6528997759769035 28.099300978500157 0 0 0
609 0 1 0.0 13.223199984730979 33.05799999705559 26.44640005411639 0 -1 0
610 0 1 0.0 14.87610014524643 1.6528998746730377 28.099300768019877 0 0 0
628 0 1 0.0 11.57029992113356 4.958700134570688 28.099301240908133 0 0 0
629 0 1 0.0 13.2232 3.3058 26.44640000260399 0 0 0
630 0 1 0.0 14.876100287176955 4.958700095033542 28.099301323759185 0 0 0
412 0 1 0.0 18.1819 1.6529 24.79350075955647 0 0 0
414 0 1 0.0 21.4877 1.6529 24.79350075955647 0 0 0
432 0 1 0.0 18.1819 4.9587 24.79350075955647 0 0 0
434 0 1 0.0 21.4877 4.9587 24.79350075955647 0 0 0
611 0 1 0.0 16.528999999592365 33.0579999999973 26.44640009846322 0 -1 0
612 0 1 0.0 18.181899792303767 1.652899898869209 28.0993006349986 0 0 0
613 0 1 0.0 19.8348 8.509928428798901e-19 26.44640000260399 0 0 0
614 0 1 0.0 21.4877 1.6529 28.099299999999932 0 0 0