ITEM: TIMESTEP
0
ITEM: NUMBER OF ATOMS
804
ITEM: BOX BOUNDS pp pp ff
0.0000000000000000e+00 1.6529000000000000e+01
0.0000000000000000e+00 1.6529000000000000e+01
0.0000000000000000e+00 5.0000000000000000e+01
ITEM: ATOMS id type xs ys zs
1 1 0 0 0
2 1 0.1 0.1 0.033058
3 1 0.2 0 0
4 1 0.3 0.1 0.033058
5 1 0.4 0 0
11 1 0 0.2 0
12 1 0.1 0.3 0.033058
13 1 0.2 0.2 0
14 1 0.3 0.3 0.033058
15 1 0.4 0.2 0
21 1 0 0.4 0
23 1 0.2 0.4 0
25 1 0.4 0.4 0
51 1 0 0 0.066116
52 1 0.1 0.1 0.099174
53 1 0.2 0 0.066116
54 1 0.3 0.1 0.099174
55 1 0.4 0 0.066116
61 1 0 0.2 0.066116
62 1 0.1 0.3 0.099174
63 1 0.2 0.2 0.066116
64 1 0.3 0.3 0.099174
65 1 0.4 0.2 0.066116
71 1 0 0.4 0.066116
73 1 0.2 0.4 0.066116
75 1 0.4 0.4 0.066116
6 1 0.5 0.1 0.033058
7 1 0.6 0 0
8 1 0.7 0.1 0.033058
9 1 0.8 0 0
10 1 0.9 0.1 0.033058
16 1 0.5 0.3 0.033058
17 1 0.6 0.2 0
18 1 0.7 0.3 0.033058
19 1 0.8 0.2 0
20 1 0.9 0.3 0.033058
27 1 0.6 0.4 0
29 1 0.8 0.4 0
56 1 0.5 0.1 0.099174
57 1 0.6 0 0.066116
58 1 0.7 0.1 0.099174
59 1 0.8 0 0.066116
60 1 0.9 0.1 0.099174
66 1 0.5 0.3 0.099174
67 1 0.6 0.2 0.066116
68 1 0.7 0.3 0.099174
69 1 0.8 0.2 0.066116
70 1 0.9 0.3 0.099174
77 1 0.6 0.4 0.066116
79 1 0.8 0.4 0.066116
22 1 0.1 0.5 0.033058
24 1 0.3 0.5 0.033058
31 1 0 0.6 0
32 1 0.1 0.7 0.033058
33 1 0.2 0.6 0
34 1 0.3 0.7 0.033058
35 1 0.4 0.6 0
41 1 0 0.8 0
42 1 0.1 0.9 0.033058
43 1 0.2 0.8 0
44 1 0.3 0.9 0.033058
45 1 0.4 0.8 0
72 1 0.1 0.5 0.099174
74 1 0.3 0.5 0.099174
81 1 0 0.6 0.066116
82 1 0.1 0.7 0.099174
83 1 0.2 0.6 0.066116
84 1 0.3 0.7 0.099174
85 1 0.4 0.6 0.066116
91 1 0 0.8 0.066116
92 1 0.1 0.9 0.099174
93 1 0.2 0.8 0.066116
94 1 0.3 0.9 0.099174
95 1 0.4 0.8 0.066116
26 1 0.5 0.5 0.033058
28 1 0.7 0.5 0.033058
30 1 0.9 0.5 0.033058
36 1 0.5 0.7 0.033058
37 1 0.6 0.6 0
38 1 0.7 0.7 0.033058
39 1 0.8 0.6 0
40 1 0.9 0.7 0.033058
46 1 0.5 0.9 0.033058
47 1 0.6 0.8 0
48 1 0.7 0.9 0.033058
49 1 0.8 0.8 0
50 1 0.9 0.9 0.033058
76 1 0.5 0.5 0.099174
78 1 0.7 0.5 0.099174
80 1 0.9 0.5 0.099174
86 1 0.5 0.7 0.099174
87 1 0.6 0.6 0.066116
88 1 0.7 0.7 0.099174
89 1 0.8 0.6 0.066116
90 1 0.9 0.7 0.099174
96 1 0.5 0.9 0.099174
97 1 0.6 0.8 0.066116
98 1 0.7 0.9 0.099174
99 1 0.8 0.8 0.066116
100 1 0.9 0.9 0.099174
101 1 0 0 0.132232
102 1 0.1 0.1 0.16529
103 1 0.2 0 0.132232
104 1 0.3 0.1 0.16529
105 1 0.4 0 0.132232
111 1 0 0.2 0.132232
112 1 0.1 0.3 0.16529
113 1 0.2 0.2 0.132232
114 1 0.3 0.3 0.16529
115 1 0.4 0.2 0.132232
121 1 0 0.4 0.132232
123 1 0.2 0.4 0.132232
125 1 0.4 0.4 0.132232
151 1 0 0 0.198348
152 1 0.1 0.1 0.231406
153 1 0.2 0 0.198348
154 1 0.3 0.1 0.231406
155 1 0.4 0 0.198348
161 1 0 0.2 0.198348
162 1 0.1 0.3 0.231406
163 1 0.2 0.2 0.198348
164 1 0.3 0.3 0.231406
165 1 0.4 0.2 0.198348
171 1 0 0.4 0.198348
173 1 0.2 0.4 0.198348
175 1 0.4 0.4 0.198348
106 1 0.5 0.1 0.16529
107 1 0.6 0 0.132232
108 1 0.7 0.1 0.16529
109 1 0.8 0 0.132232
110 1 0.9 0.1 0.16529
116 1 0.5 0.3 0.16529
117 1 0.6 0.2 0.132232
118 1 0.7 0.3 0.16529
119 1 0.8 0.2 0.132232
120 1 0.9 0.3 0.16529
127 1 0.6 0.4 0.132232
129 1 0.8 0.4 0.132232
156 1 0.5 0.1 0.231406
157 1 0.6 0 0.198348
158 1 0.7 0.1 0.231406
159 1 0.8 0 0.198348
160 1 0.9 0.1 0.231406
166 1 0.5 0.3 0.231406
167 1 0.6 0.2 0.198348
168 1 0.7 0.3 0.231406
169 1 0.8 0.2 0.198348
170 1 0.9 0.3 0.231406
177 1 0.6 0.4 0.198348
179 1 0.8 0.4 0.198348
122 1 0.1 0.5 0.16529
124 1 0.3 0.5 0.16529
131 1 0 0.6 0.132232
132 1 0.1 0.7 0.16529
133 1 0.2 0.6 0.132232
134 1 0.3 0.7 0.16529
135 1 0.4 0.6 0.132232
141 1 0 0.8 0.132232
142 1 0.1 0.9 0.16529
143 1 0.2 0.8 0.132232
144 1 0.3 0.9 0.16529
145 1 0.4 0.8 0.132232
172 1 0.1 0.5 0.231406
174 1 0.3 0.5 0.231406
181 1 0 0.6 0.198348
182 1 0.1 0.7 0.231406
183 1 0.2 0.6 0.198348
184 1 0.3 0.7 0.231406
185 1 0.4 0.6 0.198348
191 1 0 0.8 0.198348
192 1 0.1 0.9 0.231406
193 1 0.2 0.8 0.198348
194 1 0.3 0.9 0.231406
195 1 0.4 0.8 0.198348
126 1 0.5 0.5 0.16529
128 1 0.7 0.5 0.16529
130 1 0.9 0.5 0.16529
136 1 0.5 0.7 0.16529
137 1 0.6 0.6 0.132232
138 1 0.7 0.7 0.16529
139 1 0.8 0.6 0.132232
140 1 0.9 0.7 0.16529
146 1 0.5 0.9 0.16529
147 1 0.6 0.8 0.132232
148 1 0.7 0.9 0.16529
149 1 0.8 0.8 0.132232
150 1 0.9 0.9 0.16529
176 1 0.5 0.5 0.231406
178 1 0.7 0.5 0.231406
180 1 0.9 0.5 0.231406
186 1 0.5 0.7 0.231406
187 1 0.6 0.6 0.198348
188 1 0.7 0.7 0.231406
189 1 0.8 0.6 0.198348
190 1 0.9 0.7 0.231406
196 1 0.5 0.9 0.231406
197 1 0.6 0.8 0.198348
198 1 0.7 0.9 0.231406
199 1 0.8 0.8 0.198348
200 1 0.9 0.9 0.231406
201 1 0 0 0.264464
202 1 0.1 0.1 0.297522
203 1 0.2 0 0.264464
204 1 0.3 0.1 0.297522
205 1 0.4 0 0.264464
211 1 0 0.2 0.264464
212 1 0.1 0.3 0.297522
213 1 0.2 0.2 0.264464
214 1 0.3 0.3 0.297522
215 1 0.4 0.2 0.264464
221 1 0 0.4 0.264464
223 1 0.2 0.4 0.264464
225 1 0.4 0.4 0.264464
251 1 0 0 0.33058
252 1 0.1 0.1 0.363638
253 1 0.2 0 0.33058
254 1 0.3 0.1 0.363638
255 1 0.4 0 0.33058
261 1 0 0.2 0.33058
262 1 0.1 0.3 0.363638
263 1 0.2 0.2 0.33058
264 1 0.3 0.3 0.363638
265 1 0.4 0.2 0.33058
271 1 0 0.4 0.33058
273 1 0.2 0.4 0.33058
275 1 0.4 0.4 0.33058
206 1 0.5 0.1 0.297522
207 1 0.6 0 0.264464
208 1 0.7 0.1 0.297522
209 1 0.8 0 0.264464
210 1 0.9 0.1 0.297522
216 1 0.5 0.3 0.297522
217 1 0.6 0.2 0.264464
218 1 0.7 0.3 0.297522
219 1 0.8 0.2 0.264464
220 1 0.9 0.3 0.297522
227 1 0.6 0.4 0.264464
229 1 0.8 0.4 0.264464
256 1 0.5 0.1 0.363638
257 1 0.6 0 0.33058
258 1 0.7 0.1 0.363638
259 1 0.8 0 0.33058
260 1 0.9 0.1 0.363638
266 1 0.5 0.3 0.363638
267 1 0.6 0.2 0.33058
268 1 0.7 0.3 0.363638
269 1 0.8 0.2 0.33058
270 1 0.9 0.3 0.363638
277 1 0.6 0.4 0.33058
279 1 0.8 0.4 0.33058
222 1 0.1 0.5 0.297522
224 1 0.3 0.5 0.297522
231 1 0 0.6 0.264464
232 1 0.1 0.7 0.297522
233 1 0.2 0.6 0.264464
234 1 0.3 0.7 0.297522
235 1 0.4 0.6 0.264464
241 1 0 0.8 0.264464
242 1 0.1 0.9 0.297522
243 1 0.2 0.8 0.264464
244 1 0.3 0.9 0.297522
245 1 0.4 0.8 0.264464
272 1 0.1 0.5 0.363638
274 1 0.3 0.5 0.363638
281 1 0 0.6 0.33058
282 1 0.1 0.7 0.363638
283 1 0.2 0.6 0.33058
284 1 0.3 0.7 0.363638
285 1 0.4 0.6 0.33058
291 1 0 0.8 0.33058
292 1 0.1 0.9 0.363638
293 1 0.2 0.8 0.33058
294 1 0.3 0.9 0.363638
295 1 0.4 0.8 0.33058
226 1 0.5 0.5 0.297522
228 1 0.7 0.5 0.297522
230 1 0.9 0.5 0.297522
236 1 0.5 0.7 0.297522
237 1 0.6 0.6 0.264464
238 1 0.7 0.7 0.297522
239 1 0.8 0.6 0.264464
240 1 0.9 0.7 0.297522
246 1 0.5 0.9 0.297522
247 1 0.6 0.8 0.264464
248 1 0.7 0.9 0.297522
249 1 0.8 0.8 0.264464
250 1 0.9 0.9 0.297522
276 1 0.5 0.5 0.363638
278 1 0.7 0.5 0.363638
280 1 0.9 0.5 0.363638
286 1 0.5 0.7 0.363638
287 1 0.6 0.6 0.33058
288 1 0.7 0.7 0.363638
289 1 0.8 0.6 0.33058
290 1 0.9 0.7 0.363638
296 1 0.5 0.9 0.363638
297 1 0.6 0.8 0.33058
298 1 0.7 0.9 0.363638
299 1 0.8 0.8 0.33058
300 1 0.9 0.9 0.363638
302 2 0.033613 0.0109849 0.416652
303 2 0.188397 0.0170368 0.409467
306 2 0.385713 0.0289214 0.419733
313 2 0.00291294 0.217613 0.422099
315 2 0.149619 0.16319 0.420402
316 2 0.21338 0.199808 0.419598
317 2 0.374186 0.16037 0.410759
318 2 0.351811 0.202628 0.429241
325 2 0.0010485 0.399708 0.419307
327 2 0.207399 0.33872 0.423185
328 2 0.1556 0.387277 0.416815
329 2 0.374912 0.37988 0.43006
330 2 0.351085 0.346117 0.40994
374 2 0.0316285 0.0119416 0.484792
376 2 0.218278 0.000551711 0.479942
377 2 0.327312 0.00115883 0.482923
386 2 0.0345751 0.176434 0.483797
387 2 0.165504 0.148784 0.478284
388 2 0.197495 0.214214 0.481716
389 2 0.326281 0.1793 0.47994
390 2 0.399716 0.183699 0.48006
397 2 0.00604702 0.329018 0.484205
399 2 0.154345 0.357257 0.48798
400 2 0.208653 0.368739 0.47202
401 2 0.337215 0.388976 0.48121
402 2 0.388782 0.33702 0.47879
307 2 0.508173 0.00360711 0.421499
310 2 0.758525 0.017174 0.419937
312 2 0.925426 0.0320756 0.420544
314 2 0.997087 0.145385 0.417901
319 2 0.515958 0.204503 0.418988
320 2 0.573037 0.158495 0.421012
321 2 0.703665 0.204556 0.414061
322 2 0.748328 0.158442 0.425939
323 2 0.87321 0.169751 0.422078
324 2 0.941782 0.193247 0.417922
326 2 0.998952 0.326289 0.420693
331 2 0.55311 0.391526 0.427129
332 2 0.535885 0.334471 0.412871
333 2 0.698559 0.373731 0.42728
334 2 0.753435 0.352266 0.41272
335 2 0.870773 0.362892 0.4193
336 2 0.944219 0.363105 0.4207
380 2 0.555033 0.0275802 0.487253
382 2 0.706742 0.0271732 0.474837
384 2 0.940145 0.012827 0.483659
385 2 0.965425 0.186565 0.476203
391 2 0.529468 0.205297 0.472171
392 2 0.559527 0.157702 0.487829
393 2 0.712708 0.191438 0.490852
394 2 0.739285 0.171561 0.469148
395 2 0.895977 0.148747 0.484017
396 2 0.919015 0.214252 0.475983
398 2 0.993953 0.396978 0.475795
403 2 0.545193 0.326288 0.479268
404 2 0.543802 0.399709 0.480732
405 2 0.731731 0.364232 0.467996
406 2 0.720263 0.361765 0.492004
407 2 0.924085 0.375374 0.469947
408 2 0.890907 0.350623 0.490053
304 2 0.174602 0.982963 0.430533
305 2 0.340284 0.971079 0.420267
338 2 0.0304408 0.530957 0.425154
339 2 0.147347 0.531229 0.418921
340 2 0.215651 0.557766 0.421079
341 2 0.351984 0.557046 0.409165
342 2 0.374013 0.531949 0.430835
350 2 0.00856654 0.690235 0.419709
351 2 0.188828 0.741073 0.409176
352 2 0.17417 0.710921 0.430824
353 2 0.37643 0.703024 0.411605
354 2 0.349567 0.748969 0.428395
362 2 0.0365003 0.907909 0.418499
363 2 0.210405 0.920404 0.426192
364 2 0.152593 0.894588 0.413808
365 2 0.330394 0.900442 0.425124
366 2 0.395603 0.91455 0.414876
375 2 0.14472 0.999448 0.480058
378 2 0.398685 0.998841 0.477077
410 2 0.0196404 0.573888 0.476637
411 2 0.148618 0.534653 0.475628
412 2 0.214381 0.554343 0.484372
413 2 0.379141 0.539172 0.469216
414 2 0.346856 0.549823 0.490784
422 2 0.0359668 0.731491 0.478212
423 2 0.200927 0.695487 0.477789
424 2 0.162071 0.756506 0.482211
425 2 0.338388 0.698914 0.478768
426 2 0.387609 0.75308 0.481232
434 2 0.0367034 0.905782 0.48057
435 2 0.20676 0.911728 0.471272
436 2 0.156239 0.903264 0.488728
437 2 0.350166 0.941968 0.479927
438 2 0.37583 0.873024 0.480073
301 2 0.966387 0.989015 0.423348
308 2 0.580822 0.996393 0.418501
309 2 0.693469 0.982826 0.420063
311 2 0.889565 0.967924 0.419456
337 2 0.969559 0.558038 0.414846
343 2 0.50775 0.543591 0.419549
344 2 0.581245 0.545404 0.420451
345 2 0.731219 0.514585 0.426863
346 2 0.720774 0.57441 0.413137
347 2 0.880559 0.532682 0.427301
348 2 0.934433 0.556313 0.412699
349 2 0.991433 0.761758 0.420291
355 2 0.538544 0.690012 0.421575
356 2 0.550451 0.761982 0.418425
357 2 0.726133 0.710772 0.431069
358 2 0.725861 0.741222 0.408931
359 2 0.872083 0.733052 0.417682
360 2 0.942909 0.718942 0.422318
361 2 0.9635 0.907082 0.421501
367 2 0.535123 0.937552 0.413712
368 2 0.553872 0.87744 0.426288
369 2 0.721716 0.876618 0.413545
370 2 0.730278 0.938374 0.426455
371 2 0.870841 0.908301 0.419018
372 2 0.944151 0.906691 0.420982
373 2 0.968371 0.988058 0.475208
379 2 0.533962 0.97242 0.472747
381 2 0.745252 0.972827 0.485163
383 2 0.874846 0.987173 0.476341
409 2 0.98036 0.515107 0.483363
415 2 0.510226 0.544026 0.484414
416 2 0.578769 0.544969 0.475586
417 2 0.691931 0.534598 0.476786
418 2 0.760063 0.554397 0.483214
419 2 0.922106 0.51864 0.487174
420 2 0.892886 0.570355 0.472826
421 2 0.964033 0.720503 0.481788
427 2 0.535542 0.741118 0.469318
428 2 0.553454 0.710875 0.490682
429 2 0.705621 0.74999 0.473709
430 2 0.746373 0.702004 0.486291
431 2 0.922399 0.693897 0.476685
432 2 0.892593 0.758096 0.483315
433 2 0.963297 0.90921 0.47943
439 2 0.523168 0.902618 0.489775
440 2 0.565827 0.912374 0.470225
441 2 0.709784 0.940513 0.47992
442 2 0.742209 0.874479 0.48008
443 2 0.895179 0.930722 0.488505
444 2 0.919813 0.884269 0.471495
446 2 0.0333111 0.00818695 0.544391
447 2 0.14831 0.0121229 0.53662
449 2 0.34479 0.0120116 0.549791
458 2 0.0319474 0.195072 0.535976
459 2 0.151272 0.196632 0.535205
460 2 0.211727 0.166366 0.544795
461 2 0.332313 0.198698 0.536444
462 2 0.393683 0.164301 0.543556
470 2 0.0264272 0.383607 0.545013
471 2 0.156205 0.354635 0.548385
472 2 0.206794 0.371362 0.531615
473 2 0.333181 0.368184 0.546911
474 2 0.392816 0.357813 0.533089
518 2 0.00152048 0.0340761 0.595449
520 2 0.207845 0.0175981 0.606178
522 2 0.380828 0.0166966 0.590908
529 2 0.0199343 0.152983 0.603946
531 2 0.184762 0.18422 0.612079
532 2 0.178237 0.178779 0.587921
533 2 0.373714 0.150348 0.60541
534 2 0.352283 0.212651 0.59459
542 2 0.0280223 0.383897 0.603784
543 2 0.162048 0.389664 0.594632
544 2 0.20095 0.336333 0.605368
545 2 0.338716 0.339551 0.595168
546 2 0.387281 0.386445 0.604832
452 2 0.574546 0.0184708 0.543451
453 2 0.704059 0.0227835 0.533792
455 2 0.874294 0.0155524 0.539017
457 2 0.968053 0.167926 0.544024
463 2 0.516012 0.167329 0.546103
464 2 0.572983 0.195669 0.533897
465 2 0.75091 0.188856 0.548609
466 2 0.701083 0.174142 0.531391
467 2 0.912639 0.205936 0.531072
468 2 0.902352 0.157062 0.548928
469 2 0.973573 0.342389 0.534987
475 2 0.510159 0.354866 0.536568
476 2 0.578836 0.371131 0.543432
477 2 0.745488 0.363881 0.529692
478 2 0.706506 0.362116 0.550308
479 2 0.885581 0.33753 0.535051
480 2 0.92941 0.388467 0.544949
523 2 0.540677 0.00770104 0.588177
525 2 0.710984 0.00693585 0.610862
528 2 0.919454 0.0133978 0.589388
530 2 0.980066 0.210015 0.596054
535 2 0.541227 0.216928 0.596914
536 2 0.547768 0.146071 0.603086
537 2 0.696815 0.166548 0.594489
538 2 0.755178 0.196451 0.605511
539 2 0.902041 0.202828 0.590259
540 2 0.912951 0.16017 0.609741
541 2 0.971978 0.3421 0.596216
547 2 0.572449 0.386593 0.601284
548 2 0.516546 0.339404 0.598716
549 2 0.710244 0.375055 0.58976
550 2 0.74175 0.350942 0.61024
551 2 0.907401 0.343269 0.610263
552 2 0.907591 0.382728 0.589737
448 2 0.214689 0.987877 0.54338
450 2 0.381207 0.987988 0.530209
481 2 0.00465269 0.532601 0.528597
483 2 0.152819 0.525183 0.544148
484 2 0.210179 0.563812 0.535852
485 2 0.326444 0.544098 0.53865
486 2 0.399553 0.544897 0.54135
494 2 0.0355941 0.731263 0.537474
495 2 0.199541 0.694124 0.538871
496 2 0.163457 0.75787 0.541129
497 2 0.326768 0.722453 0.538256
498 2 0.399229 0.729541 0.541744
506 2 0.0123113 0.880053 0.533
507 2 0.171713 0.883624 0.531333
508 2 0.191286 0.931367 0.548667
509 2 0.358167 0.894067 0.528793
510 2 0.367829 0.920925 0.551207
519 2 0.155153 0.982402 0.593822
521 2 0.345169 0.983303 0.609092
554 2 0.00835812 0.576314 0.605441
555 2 0.145584 0.552006 0.600859
556 2 0.217415 0.536989 0.599141
557 2 0.377561 0.544238 0.611166
558 2 0.348436 0.544757 0.588834
565 2 0.0148957 0.758667 0.597359
567 2 0.146881 0.714387 0.598526
568 2 0.216117 0.737606 0.601474
569 2 0.327875 0.732656 0.597136
570 2 0.398122 0.719337 0.602864
578 2 0.0365558 0.908921 0.598733
579 2 0.180803 0.872267 0.596509
580 2 0.182195 0.942725 0.603491
581 2 0.365591 0.871766 0.60276
582 2 0.360406 0.943226 0.59724
445 2 0.966689 0.991813 0.535609
451 2 0.514449 0.981529 0.536549
454 2 0.747935 0.977216 0.546208
456 2 0.940697 0.984448 0.540983
482 2 0.995347 0.556394 0.551403
487 2 0.511078 0.55743 0.537255
488 2 0.577917 0.531565 0.542745
489 2 0.721391 0.557081 0.551324
490 2 0.730603 0.531914 0.528676
491 2 0.870725 0.545423 0.540119
492 2 0.944266 0.543573 0.539881
493 2 0.964406 0.72073 0.542526
499 2 0.507798 0.726472 0.539193
500 2 0.581197 0.725521 0.540807
501 2 0.689214 0.725691 0.539996
502 2 0.762779 0.726303 0.540004
503 2 0.883435 0.743678 0.532898
504 2 0.931557 0.708316 0.547102
505 2 0.987689 0.934938 0.547
511 2 0.54212 0.944163 0.540565
512 2 0.546875 0.870829 0.539435
513 2 0.71979 0.937731 0.533385
514 2 0.732203 0.877261 0.546615
515 2 0.872538 0.918745 0.540698
516 2 0.942454 0.896247 0.539302
517 2 0.99848 0.965924 0.604551
524 2 0.548318 0.992299 0.611823
526 2 0.741009 0.993064 0.589138
527 2 0.895538 0.986602 0.610612
553 2 0.991642 0.512681 0.594559
559 2 0.510025 0.554178 0.597215
560 2 0.57897 0.534817 0.602785
561 2 0.759475 0.558105 0.597731
562 2 0.692519 0.53089 0.602269
563 2 0.897413 0.573343 0.606769
564 2 0.917579 0.515652 0.593231
566 2 0.985104 0.693327 0.602641
571 2 0.524826 0.715459 0.609666
572 2 0.564169 0.736535 0.590334
573 2 0.74376 0.693789 0.600144
574 2 0.708233 0.758204 0.599856
575 2 0.87413 0.72494 0.605107
576 2 0.940862 0.727053 0.594893
577 2 0.963444 0.906071 0.601267
583 2 0.562337 0.882662 0.60676
584 2 0.526659 0.93233 0.59324
585 2 0.74193 0.938523 0.603862
586 2 0.710063 0.876468 0.596138
587 2 0.895444 0.939921 0.604134
588 2 0.919548 0.87507 0.595866
589 2 0.0109866 0.0345998 0.661961
592 2 0.182649 0.0202617 0.649858
593 2 0.335511 0.0160277 0.653899
601 2 0.0184777 0.212536 0.662298
603 2 0.147024 0.193433 0.661555
604 2 0.215974 0.169566 0.658445
605 2 0.354571 0.150931 0.653836
606 2 0.371425 0.212067 0.666164
613 2 0.00904355 0.398584 0.660733
615 2 0.17369 0.397349 0.6565
616 2 0.189308 0.328648 0.6635
617 2 0.337812 0.33758 0.662818
618 2 0.388184 0.388416 0.657182
662 2 0.0343504 0.0121068 0.721703
664 2 0.174301 0.0201608 0.729889
666 2 0.369462 0.0141427 0.73102
673 2 0.00933396 0.20248 0.729499
675 2 0.14576 0.17938 0.71721
676 2 0.217239 0.183619 0.72279
677 2 0.368238 0.201803 0.729991
678 2 0.357759 0.161196 0.710009
685 2 0.0331043 0.376861 0.722665
687 2 0.159007 0.346058 0.727824
688 2 0.203992 0.379939 0.712176
689 2 0.356503 0.399027 0.718816
690 2 0.369493 0.32697 0.721184
595 2 0.508128 0.0052187 0.660579
597 2 0.762745 0.00133794 0.659706
599 2 0.872217 0.000992683 0.663427
602 2 0.981522 0.150462 0.657702
607 2 0.523722 0.160595 0.667276
608 2 0.565274 0.202404 0.652724
609 2 0.706334 0.150838 0.661696
610 2 0.745659 0.212161 0.658304
611 2 0.942809 0.182359 0.663393
612 2 0.872183 0.18064 0.656607
614 2 0.990956 0.327413 0.659267
619 2 0.529651 0.340316 0.651781
620 2 0.559344 0.385681 0.668219
621 2 0.709807 0.376979 0.669892
622 2 0.742187 0.349018 0.650108
623 2 0.883385 0.3856 0.66534
624 2 0.931607 0.340397 0.65466
667 2 0.527121 0.0319565 0.718193
670 2 0.719707 0.0362411 0.719908
672 2 0.922141 0.0322684 0.716739
674 2 0.990666 0.160518 0.710501
679 2 0.509234 0.183445 0.7166
680 2 0.579761 0.179553 0.7234
681 2 0.701642 0.20876 0.718648
682 2 0.750352 0.154238 0.721352
683 2 0.899093 0.201258 0.729873
684 2 0.915899 0.161741 0.710127
686 2 0.966896 0.349136 0.717335
691 2 0.565447 0.334992 0.716234
692 2 0.523548 0.391005 0.723766
693 2 0.701046 0.343037 0.726024
694 2 0.750948 0.382959 0.713976
695 2 0.879668 0.361054 0.727926
696 2 0.935324 0.364942 0.712074
591 2 0.180349 0.979738 0.670142
594 2 0.390486 0.983972 0.666101
626 2 0.0204772 0.51903 0.654418
627 2 0.2103 0.549643 0.65263
628 2 0.152698 0.539352 0.66737
629 2 0.329032 0.538499 0.664225
630 2 0.396964 0.550496 0.655775
638 2 0.0300513 0.72861 0.653041
639 2 0.153386 0.704028 0.657042
640 2 0.209612 0.747966 0.662958
641 2 0.328436 0.735594 0.657307
642 2 0.397561 0.716399 0.662693
649 2 0.0289859 0.913122 0.652748
651 2 0.145154 0.905895 0.661796
652 2 0.217844 0.909097 0.658204
653 2 0.38013 0.939075 0.66261
654 2 0.345867 0.875917 0.65739
663 2 0.188697 0.979839 0.710111
665 2 0.356535 0.985857 0.70898
698 2 0.0350975 0.539567 0.716746
699 2 0.14582 0.536308 0.718809
700 2 0.217179 0.552687 0.721191
701 2 0.34046 0.535429 0.710869
702 2 0.385536 0.553566 0.729131
710 2 0.0329559 0.713584 0.723512
711 2 0.155292 0.748007 0.715543
712 2 0.207706 0.703987 0.724457
713 2 0.326219 0.725482 0.719918
714 2 0.399778 0.726512 0.720082
721 2 0.0176303 0.897417 0.709861
723 2 0.145311 0.911745 0.718333
724 2 0.217687 0.903247 0.721667
725 2 0.34296 0.929866 0.712979
726 2 0.383036 0.885126 0.727021
590 2 0.989013 0.9654 0.658039
596 2 0.580867 0.994781 0.659421
598 2 0.689248 0.998662 0.660294
600 2 0.942774 0.999007 0.656573
625 2 0.979523 0.569965 0.665582
631 2 0.530672 0.538679 0.648897
632 2 0.558323 0.550316 0.671103
633 2 0.689238 0.545168 0.659613
634 2 0.762756 0.543828 0.660387
635 2 0.874203 0.542115 0.66511
636 2 0.940788 0.54688 0.65489
637 2 0.969949 0.723384 0.666959
643 2 0.520284 0.735969 0.65146
644 2 0.568712 0.716024 0.66854
645 2 0.711635 0.753439 0.66656
646 2 0.740358 0.698555 0.65344
647 2 0.892316 0.759222 0.661431
648 2 0.922676 0.692772 0.658569
650 2 0.971014 0.90187 0.667252
655 2 0.508045 0.902742 0.660431
656 2 0.58095 0.912249 0.659569
657 2 0.708404 0.886847 0.651787
658 2 0.743589 0.928144 0.668213
659 2 0.872926 0.903184 0.656097
660 2 0.942066 0.911808 0.663903
661 2 0.96565 0.987893 0.718297
668 2 0.561874 0.968043 0.721807
669 2 0.732286 0.963759 0.720092
671 2 0.892851 0.967732 0.723261
697 2 0.964902 0.549428 0.723254
703 2 0.5294 0.576157 0.716337
704 2 0.559595 0.512838 0.723663
705 2 0.720836 0.580863 0.720657
706 2 0.731157 0.508132 0.719343
707 2 0.905785 0.536484 0.708146
708 2 0.909207 0.552511 0.731854
709 2 0.967044 0.738409 0.716488
715 2 0.536541 0.754868 0.712939
716 2 0.552454 0.697126 0.727061
717 2 0.706103 0.745241 0.711991
718 2 0.745891 0.706753 0.728009
719 2 0.887774 0.710497 0.728894
720 2 0.927218 0.741496 0.711106
722 2 0.98237 0.917575 0.730139
727 2 0.50817 0.902813 0.718881
728 2 0.580825 0.912179 0.721119
729 2 0.735252 0.9303 0.729037
730 2 0.716742 0.884691 0.710963
731 2 0.897204 0.876983 0.725877
732 2 0.917788 0.938009 0.714123
734 2 0.0363263 0.0046765 0.781125
735 2 0.17229 0.020556 0.770387
738 2 0.396487 0.00676739 0.775494
746 2 0.0193975 0.158225 0.786895
747 2 0.144798 0.179615 0.780527
748 2 0.2182 0.183384 0.779473
749 2 0.342814 0.167666 0.789079
750 2 0.383183 0.195333 0.770921
758 2 0.0182422 0.394659 0.781398
759 2 0.145317 0.363707 0.777822
760 2 0.217681 0.36229 0.782178
761 2 0.333638 0.377578 0.774484
762 2 0.392359 0.348418 0.785516
740 2 0.578471 0.0140763 0.779727
742 2 0.760367 0.00355115 0.78417
743 2 0.929425 0.0254534 0.784951
745 2 0.980603 0.204774 0.773105
751 2 0.507924 0.177788 0.780429
752 2 0.581071 0.18521 0.779571
753 2 0.717559 0.148242 0.784383
754 2 0.734434 0.214757 0.775617
755 2 0.929969 0.153004 0.781985
756 2 0.885023 0.209994 0.778015
757 2 0.981758 0.331338 0.778602
763 2 0.527238 0.330559 0.779441
764 2 0.561757 0.395437 0.780559
765 2 0.718813 0.335148 0.78758
766 2 0.73318 0.390849 0.77242
767 2 0.913784 0.330627 0.785388
768 2 0.901208 0.39537 0.774612
736 2 0.190709 0.979444 0.789613
737 2 0.32951 0.993233 0.784506
770 2 0.0269777 0.566832 0.776283
771 2 0.147915 0.533252 0.783285
772 2 0.215083 0.555743 0.776715
773 2 0.362093 0.581229 0.779425
774 2 0.363903 0.507766 0.780575
781 2 0.00767227 0.736098 0.768586
783 2 0.152578 0.70451 0.78245
784 2 0.210421 0.747484 0.77755
785 2 0.340768 0.699823 0.784358
786 2 0.385229 0.75217 0.775642
794 2 0.0282278 0.90172 0.787559
795 2 0.190686 0.874492 0.784428
796 2 0.172312 0.9405 0.775572
797 2 0.353448 0.909972 0.768286
798 2 0.372549 0.90502 0.791714
733 2 0.963674 0.995324 0.778875
739 2 0.510524 0.985924 0.780273
741 2 0.691627 0.996449 0.77583
744 2 0.885567 0.974547 0.775049
769 2 0.973022 0.522163 0.783717
775 2 0.541267 0.521697 0.770518
776 2 0.547728 0.567298 0.789482
777 2 0.762726 0.544441 0.779338
778 2 0.689268 0.544554 0.780662
779 2 0.886002 0.537606 0.770399
780 2 0.92899 0.55139 0.789601
782 2 0.992328 0.715896 0.791414
787 2 0.508363 0.732185 0.779006
788 2 0.580632 0.719809 0.780994
789 2 0.7365 0.727956 0.768364
790 2 0.715494 0.724038 0.791636
791 2 0.916131 0.707213 0.769942
792 2 0.898861 0.744781 0.790058
793 2 0.971772 0.913271 0.772441
799 2 0.507723 0.907163 0.780255
800 2 0.581272 0.907829 0.779745
801 2 0.70094 0.928808 0.774558
802 2 0.751053 0.886184 0.785442
803 2 0.875694 0.920083 0.775525
804 2 0.939298 0.894909 0.784475
ITEM: TIMESTEP
1
ITEM: NUMBER OF ATOMS
804
ITEM: BOX BOUNDS pp pp ff
0.0000000000000000e+00 1.6529000000000000e+01
0.0000000000000000e+00 1.6529000000000000e+01
0.0000000000000000e+00 5.0000000000000000e+01
ITEM: ATOMS id type xs ys zs
1 1 1.54007e-20 1.42591e-20 7.04779e-07
2 1 0.1 0.1 0.0330574
3 1 0.2 -1.22137e-21 7.04779e-07
4 1 0.3 0.1 0.0330574
5 1 0.4 2.37278e-20 7.04779e-07
11 1 7.16311e-22 0.2 7.04779e-07
12 1 0.1 0.3 0.0330574
13 1 0.2 0.2 7.04779e-07
14 1 0.3 0.3 0.0330574
15 1 0.4 0.2 7.04779e-07
21 1 1.06551e-20 0.4 7.04779e-07
23 1 0.2 0.4 7.04779e-07
25 1 0.4 0.4 7.04779e-07
51 1 8.50619e-22 1.07838e-20 0.0661157
52 1 0.1 0.1 0.0991741
53 1 0.2 5.21997e-20 0.0661157
54 1 0.3 0.1 0.0991741
55 1 0.4 2.60782e-20 0.0661157
61 1 5.75287e-20 0.2 0.0661157
62 1 0.1 0.3 0.0991741
63 1 0.2 0.2 0.0661157
64 1 0.3 0.3 0.0991741
65 1 0.4 0.2 0.0661157
71 1 2.13102e-20 0.4 0.0661157
73 1 0.2 0.4 0.0661157
75 1 0.4 0.4 0.0661157
6 1 0.5 0.1 0.0330574
7 1 0.6 9.93881e-21 7.04779e-07
8 1 0.7 0.1 0.0330574
9 1 0.8 -4.75675e-22 7.04779e-07
10 1 0.9 0.1 0.0330574
16 1 0.5 0.3 0.0330574
17 1 0.6 0.2 7.04779e-07
18 1 0.7 0.3 0.0330574
19 1 0.8 0.2 7.04779e-07
20 1 0.9 0.3 0.0330574
27 1 0.6 0.4 7.04779e-07
29 1 0.8 0.4 7.04779e-07
56 1 0.5 0.1 0.0991741
57 1 0.6 6.61244e-20 0.0661157
58 1 0.7 0.1 0.0991741
59 1 0.8 3.96097e-20 0.0661157
60 1 0.9 0.1 0.0991741
66 1 0.5 0.3 0.0991741
67 1 0.6 0.2 0.0661157
68 1 0.7 0.3 0.0991741
69 1 0.8 0.2 0.0661157
70 1 0.9 0.3 0.0991741
77 1 0.6 0.4 0.0661157
79 1 0.8 0.4 0.0661157
22 1 0.1 0.5 0.0330574
24 1 0.3 0.5 0.0330574
31 1 5.9991e-21 0.6 7.04779e-07
32 1 0.1 0.7 0.0330574
33 1 0.2 0.6 7.04779e-07
34 1 0.3 0.7 0.0330574
35 1 0.4 0.6 7.04779e-07
41 1 2.86524e-21 0.8 7.04779e-07
42 1 0.1 0.9 0.0330574
43 1 0.2 0.8 7.04779e-07
44 1 0.3 0.9 0.0330574
45 1 0.4 0.8 7.04779e-07
72 1 0.1 0.5 0.0991741
74 1 0.3 0.5 0.0991741
81 1 3.43829e-20 0.6 0.0661157
82 1 0.1 0.7 0.0991741
83 1 0.2 0.6 0.0661157
84 1 0.3 0.7 0.0991741
85 1 0.4 0.6 0.0661157
91 1 1.9318e-20 0.8 0.0661157
92 1 0.1 0.9 0.0991741
93 1 0.2 0.8 0.0661157
94 1 0.3 0.9 0.0991741
95 1 0.4 0.8 0.0661157
26 1 0.5 0.5 0.0330574
28 1 0.7 0.5 0.0330574
30 1 0.9 0.5 0.0330574
36 1 0.5 0.7 0.0330574
37 1 0.6 0.6 7.04779e-07
38 1 0.7 0.7 0.0330574
39 1 0.8 0.6 7.04779e-07
40 1 0.9 0.7 0.0330574
46 1 0.5 0.9 0.0330574
47 1 0.6 0.8 7.04779e-07
48 1 0.7 0.9 0.0330574
49 1 0.8 0.8 7.04779e-07
50 1 0.9 0.9 0.0330574
76 1 0.5 0.5 0.0991741
78 1 0.7 0.5 0.0991741
80 1 0.9 0.5 0.0991741
86 1 0.5 0.7 0.0991741
87 1 0.6 0.6 0.0661157
88 1 0.7 0.7 0.0991741
89 1 0.8 0.6 0.0661157
90 1 0.9 0.7 0.0991741
96 1 0.5 0.9 0.0991741
97 1 0.6 0.8 0.0661157
98 1 0.7 0.9 0.0991741
99 1 0.8 0.8 0.0661157
100 1 0.9 0.9 0.0991741
101 1 5.42605e-20 -6.7378e-21 0.132232
102 1 0.1 0.1 0.16529
103 1 0.2 4.08801e-21 0.132232
104 1 0.3 0.1 0.16529
105 1 0.4 3.65318e-20 0.132232
111 1 3.36218e-20 0.2 0.132232
112 1 0.1 0.3 0.16529
113 1 0.2 0.2 0.132232
114 1 0.3 0.3 0.16529
115 1 0.4 0.2 0.132232
121 1 3.33532e-20 0.4 0.132232
123 1 0.2 0.4 0.132232
125 1 0.4 0.4 0.132232
151 1 3.5726e-20 1.2625e-20 0.198348
152 1 0.1 0.1 0.231406
153 1 0.2 1.71831e-20 0.198348
154 1 0.3 0.1 0.231406
155 1 0.4 1.22221e-20 0.198348
161 1 4.37397e-20 0.2 0.198348
162 1 0.1 0.3 0.231406
163 1 0.2 0.2 0.198348
164 1 0.3 0.3 0.231406
165 1 0.4 0.2 0.198348
171 1 1.26697e-20 0.4 0.198348
173 1 0.2 0.4 0.198348
175 1 0.4 0.4 0.198348
106 1 0.5 0.1 0.16529
107 1 0.6 3.72482e-20 0.132232
108 1 0.7 0.1 0.16529
109 1 0.8 1.23116e-21 0.132232
110 1 0.9 0.1 0.16529
116 1 0.5 0.3 0.16529
117 1 0.6 0.2 0.132232
118 1 0.7 0.3 0.16529
119 1 0.8 0.2 0.132232
120 1 0.9 0.3 0.16529
127 1 0.6 0.4 0.132232
129 1 0.8 0.4 0.132232
156 1 0.5 0.1 0.231406
157 1 0.6 4.61573e-20 0.198348
158 1 0.7 0.1 0.231406
159 1 0.8 5.83681e-21 0.198348
160 1 0.9 0.1 0.231406
166 1 0.5 0.3 0.231406
167 1 0.6 0.2 0.198348
168 1 0.7 0.3 0.231406
169 1 0.8 0.2 0.198348
170 1 0.9 0.3 0.231406
177 1 0.6 0.4 0.198348
179 1 0.8 0.4 0.198348
122 1 0.1 0.5 0.16529
124 1 0.3 0.5 0.16529
131 1 -5.82002e-22 0.6 0.132232
132 1 0.1 0.7 0.16529
133 1 0.2 0.6 0.132232
134 1 0.3 0.7 0.16529
135 1 0.4 0.6 0.132232
141 1 -2.10416e-20 0.8 0.132232
142 1 0.1 0.9 0.16529
143 1 0.2 0.8 0.132232
144 1 0.3 0.9 0.16529
145 1 0.4 0.8 0.132232
172 1 0.1 0.5 0.231406
174 1 0.3 0.5 0.231406
181 1 6.40203e-21 0.6 0.198348
182 1 0.1 0.7 0.231406
183 1 0.2 0.6 0.198348
184 1 0.3 0.7 0.231406
185 1 0.4 0.6 0.198348
191 1 6.26772e-22 0.8 0.198348
192 1 0.1 0.9 0.231406
193 1 0.2 0.8 0.198348
194 1 0.3 0.9 0.231406
195 1 0.4 0.8 0.198348
126 1 0.5 0.5 0.16529
128 1 0.7 0.5 0.16529
130 1 0.9 0.5 0.16529
136 1 0.5 0.7 0.16529
137 1 0.6 0.6 0.132232
138 1 0.7 0.7 0.16529
139 1 0.8 0.6 0.132232
140 1 0.9 0.7 0.16529
146 1 0.5 0.9 0.16529
147 1 0.6 0.8 0.132232
148 1 0.7 0.9 0.16529
149 1 0.8 0.8 0.132232
150 1 0.9 0.9 0.16529
176 1 0.5 0.5 0.231406
178 1 0.7 0.5 0.231406
180 1 0.9 0.5 0.231406
186 1 0.5 0.7 0.231406
187 1 0.6 0.6 0.198348
188 1 0.7 0.7 0.231406
189 1 0.8 0.6 0.198348
190 1 0.9 0.7 0.231406
196 1 0.5 0.9 0.231406
197 1 0.6 0.8 0.198348
198 1 0.7 0.9 0.231406
199 1 0.8 0.8 0.198348
200 1 0.9 0.9 0.231406
201 1 3.29055e-20 -2.75108e-20 0.264464
202 1 0.1 0.1 0.297522
203 1 0.2 -1.36407e-21 0.264464
204 1 0.3 0.1 0.297522
205 1 0.4 1.47963e-20 0.264464
211 1 3.14281e-20 0.2 0.264464
212 1 0.1 0.3 0.297522
213 1 0.2 0.2 0.264464
214 1 0.3 0.3 0.297522
215 1 0.4 0.2 0.264464
221 1 2.41531e-20 0.4 0.264464
223 1 0.2 0.4 0.264464
225 1 0.4 0.4 0.264464
251 1 -1.45715e-08 -3.20704e-08 0.330581
252 1 0.0999998 0.0999997 0.363638
253 1 0.2 -1.84891e-08 0.330581
254 1 0.3 0.0999998 0.363638
255 1 0.4 -1.88781e-08 0.330581
261 1 -2.23042e-08 0.2 0.330581
262 1 0.0999998 0.3 0.363638
263 1 0.2 0.2 0.330581
264 1 0.3 0.3 0.363638
265 1 0.4 0.2 0.330581
271 1 -1.76113e-08 0.4 0.330581
273 1 0.2 0.4 0.330581
275 1 0.4 0.4 0.330581
206 1 0.5 0.1 0.297522
207 1 0.6 2.56976e-20 0.264464
208 1 0.7 0.1 0.297522
209 1 0.8 1.71495e-20 0.264464
210 1 0.9 0.1 0.297522
216 1 0.5 0.3 0.297522
217 1 0.6 0.2 0.264464
218 1 0.7 0.3 0.297522
219 1 0.8 0.2 0.264464
220 1 0.9 0.3 0.297522
227 1 0.6 0.4 0.264464
229 1 0.8 0.4 0.264464
256 1 0.5 0.0999998 0.363638
257 1 0.6 -3.2083e-08 0.330581
258 1 0.7 0.0999998 0.363638
259 1 0.8 -3.42082e-08 0.330581
260 1 0.9 0.0999997 0.363638
266 1 0.5 0.3 0.363638
267 1 0.6 0.2 0.330581
268 1 0.7 0.3 0.363638
269 1 0.8 0.2 0.330581
270 1 0.9 0.3 0.363638
277 1 0.6 0.4 0.330581
279 1 0.8 0.4 0.330581
222 1 0.1 0.5 0.297522
224 1 0.3 0.5 0.297522
231 1 -4.79033e-21 0.6 0.264464
232 1 0.1 0.7 0.297522
233 1 0.2 0.6 0.264464
234 1 0.3 0.7 0.297522
235 1 0.4 0.6 0.264464
241 1 7.70034e-21 0.8 0.264464
242 1 0.1 0.9 0.297522
243 1 0.2 0.8 0.264464