LAMMPS data file via write_data, version 29 Oct 2020, timestep = 0

9000 atoms
2 atom types

0.0 99.039001 xlo xhi
0.0 99.039001 ylo yhi
0.0 16.5065 zlo zhi
-4e-06 -1e-06 -1e-06 xy xz yz

Masses

1 180.94788
2 180.94788

Atoms # atomic

1 1 0.0 0.0 0.0 0 0 0
2 1 1.6506530000000004 1.650653 1.65065 0 0 0
3 1 -7.940933880509066e-23 0.0 3.3013 0 0 0
4 1 1.6506530000000008 1.650653 4.951949999999998 0 0 0
5 1 -1.5881867761018131e-22 0.0 6.6026 0 0 0
6 1 1.650653 1.6506529999999995 8.25325 0 0 0
7 1 0.0 -1.0587911840678754e-22 9.903901 0 0 0
8 1 1.6506530000000006 1.6506530000000006 11.55455 0 0 0
9 1 99.03899600000003 99.03900000000002 13.2052 -1 -1 0
10 1 1.650653 1.650653 14.85585 0 0 0
11 1 -2.6469779601696886e-23 3.3012970000000004 0.0 0 0 0
12 1 1.6506529999999995 4.95195 1.65065 0 0 0
13 1 0.0 3.301297 3.3013 0 0 0
14 1 1.6506530000000004 4.95195 4.951949999999998 0 0 0
15 1 -1.0587911840678754e-22 3.3012970000000004 6.6026 0 0 0
16 1 1.6506529999999995 4.95195 8.25325 0 0 0
17 1 99.039 3.301295999999999 9.903901 -1 0 0
18 1 1.650653 4.95195 11.55455 0 0 0
19 1 99.039 3.301296 13.2052 -1 0 0
20 1 1.6506520000000005 4.951949 14.85585 0 0 0
21 1 -5.293955920339377e-23 6.602603 0.0 0 0 0
22 1 1.6506530000000004 8.253247000000002 1.65065 0 0 0
23 1 -5.293955920339377e-23 6.602603 3.3013 0 0 0
24 1 1.650653 8.253246 4.951949999999998 0 0 0
25 1 99.039 6.602603 6.6026 -1 0 0
26 1 1.6506529999999995 8.253246 8.25325 0 0 0
27 1 99.039 6.602603 9.903901 -1 0 0
28 1 1.650652 8.253246 11.55455 0 0 0
29 1 -1.0000000000000004e-06 6.602603 13.2052 0 0 0
30 1 1.6506519999999998 8.253246 14.85585 0 0 0
31 1 0.0 9.9039 0.0 0 0 0
32 1 1.650653 11.554583000000003 1.65065 0 0 0
33 1 99.03899999999999 9.9039 3.3013 -1 0 0
34 1 1.6506530000000006 11.554583000000001 4.951949999999998 0 0 0
35 1 99.03899999999999 9.9039 6.6026 -1 0 0
36 1 1.650652 11.554583 8.25325 0 0 0
37 1 -1.0000000000000002e-06 9.9039 9.903901 0 0 0
38 1 1.650652 11.554583000000003 11.55455 0 0 0
39 1 -1.0000000000000004e-06 9.9039 13.2052 0 0 0
40 1 1.6506520000000005 11.554583 14.85585 0 0 0
41 1 99.039 13.205167 0.0 -1 0 0
42 1 1.650653 14.855851000000003 1.65065 0 0 0
43 1 99.039 13.205167 3.3013 -1 0 0
44 1 1.650652 14.855851 4.951949999999998 0 0 0
45 1 99.03899999999997 13.205167 6.6026 -1 0 0
46 1 1.6506519999999998 14.85585 8.25325 0 0 0
47 1 -1.0000000000000002e-06 13.205167 9.903901 0 0 0
48 1 1.6506520000000005 14.855850000000004 11.55455 0 0 0
49 1 -1.0000000000000004e-06 13.205165999999998 13.2052 0 0 0
50 1 1.650652 14.85585 14.85585 0 0 0
51 1 99.03900000000002 16.506533 0.0 -1 0 0
52 1 1.650652 18.157117 1.65065 0 0 0
53 1 99.03899999999999 16.506533000000005 3.3013 -1 0 0
54 1 1.650652 18.157117 4.951949999999998 0 0 0
55 1 -1.0000000000000002e-06 16.506533 6.6026 0 0 0
56 1 1.650652 18.157116000000006 8.25325 0 0 0
57 1 -1.0000000000000004e-06 16.506533 9.903901 0 0 0
58 1 1.6506520000000005 18.157116 11.55455 0 0 0
59 1 -1.0000000000000004e-06 16.506533000000005 13.2052 0 0 0
60 1 1.650652 18.157116 14.85585 0 0 0
61 1 99.03899999999999 19.807801000000005 0.0 -1 0 0
62 1 1.650652 21.458483 1.65065 0 0 0
63 1 -1e-06 19.807800000000004 3.3013 0 0 0
64 1 1.650652 21.458483 4.951949999999998 0 0 0
65 1 -1.0000000000000002e-06 19.8078 6.6026 0 0 0
66 1 1.6506519999999998 21.458483000000005 8.25325 0 0 0
67 1 -1.0000000000000002e-06 19.8078 9.903901 0 0 0
68 1 1.650652 21.458482 11.55455 0 0 0
69 1 -1.0000000000000002e-06 19.8078 13.2052 0 0 0
70 1 1.6506520000000005 21.458482000000004 14.85585 0 0 0
71 1 99.039 23.109068000000004 0.0 -1 0 0
72 1 1.6506520000000005 24.75975 1.65065 0 0 0
73 1 -1.0000000000000004e-06 23.109068000000008 3.3013 0 0 0
74 1 1.6506520000000011 24.759750000000004 4.951949999999998 0 0 0
75 1 -1.0000000000000002e-06 23.109068 6.6026 0 0 0
76 1 1.650652 24.759750000000004 8.25325 0 0 0
77 1 -1.0000000000000004e-06 23.109068000000004 9.903901 0 0 0
78 1 1.6506520000000007 24.759750000000004 11.55455 0 0 0
79 1 99.03899900000002 23.109067 13.2052 -1 0 0
80 1 1.650652 24.759750000000004 14.85585 0 0 0
81 1 -1e-06 26.410434 0.0 0 0 0
82 1 1.6506519999999998 28.06101800000001 1.65065 0 0 0
83 1 -1.0000000000000002e-06 26.410434 3.3013 0 0 0
84 1 1.650652 28.06101800000001 4.951949999999998 0 0 0
85 1 -1.0000000000000004e-06 26.410434 6.6026 0 0 0
86 1 1.6506519999999998 28.061017000000014 8.25325 0 0 0
87 1 99.038999 26.410434 9.903901 -1 0 0
88 1 1.650652 28.061017000000003 11.55455 0 0 0
89 1 99.03899900000002 26.410434 13.2052 -1 0 0
90 1 1.6506510000000008 28.06101700000001 14.85585 0 0 0
91 1 -1.0000000000000006e-06 29.711702000000006 0.0 0 0 0
92 1 1.650652 31.362382 1.65065 0 0 0
93 1 -1e-06 29.711701 3.3013 0 0 0
94 1 1.650652 31.362382000000007 4.951949999999998 0 0 0
95 1 99.03899899999999 29.711701 6.6026 -1 0 0
96 1 1.6506519999999998 31.36238200000001 8.25325 0 0 0
97 1 99.03899899999999 29.711701 9.903901 -1 0 0
98 1 1.6506510000000003 31.362382 11.55455 0 0 0
99 1 -2.0000000000000003e-06 29.711701 13.2052 0 0 0
100 1 1.650651 31.362382000000007 14.85585 0 0 0
101 1 -1e-06 33.012966 0.0 0 0 0
102 1 1.6506519999999998 34.66365 1.65065 0 0 0
103 1 99.038999 33.012966 3.3013 -1 0 0
104 1 1.6506520000000005 34.66365 4.951949999999998 0 0 0
105 1 99.03899899999999 33.012966 6.6026 -1 0 0
106 1 1.650651 34.66365 8.25325 0 0 0
107 1 99.038999 33.01296599999999 9.903901 -1 0 0
108 1 1.6506510000000008 34.66364900000001 11.55455 0 0 0
109 1 -2.0000000000000003e-06 33.012965 13.2052 0 0 0
110 1 1.650651000000001 34.663649 14.85585 0 0 0
111 1 99.03899900000002 36.314334 0.0 -1 0 0
112 1 1.650652 37.964917000000014 1.65065 0 0 0
113 1 99.03899899999999 36.314334 3.3013 -1 0 0
114 1 1.6506510000000014 37.964917 4.951949999999998 0 0 0
115 1 99.03899899999999 36.31433400000001 6.6026 -1 0 0
116 1 1.6506510000000003 37.964917000000014 8.25325 0 0 0
117 1 -2.0000000000000003e-06 36.314333 9.903901 0 0 0
118 1 1.6506510000000008 37.964917000000014 11.55455 0 0 0
119 1 -2.0000000000000003e-06 36.314333 13.2052 0 0 0
120 1 1.650651000000001 37.964917 14.85585 0 0 0
121 1 99.03899900000002 39.615601 0.0 -1 0 0
122 1 1.6506510000000003 41.266285 1.65065 0 0 0
123 1 99.03899899999999 39.615601 3.3013 -1 0 0
124 1 1.6506510000000014 41.266285 4.951949999999998 0 0 0
125 1 -2.0000000000000003e-06 39.61560100000001 6.6026 0 0 0
126 1 1.6506510000000003 41.26628500000002 8.25325 0 0 0
127 1 -2.0000000000000008e-06 39.615601 9.903901 0 0 0
128 1 1.6506510000000008 41.266285 11.55455 0 0 0
129 1 -2.0000000000000003e-06 39.615601 13.2052 0 0 0
130 1 1.6506510000000003 41.266284 14.85585 0 0 0
131 1 99.038999 42.916869000000005 0.0 -1 0 0
132 1 1.650651 44.56754900000001 1.65065 0 0 0
133 1 99.038999 42.916868 3.3013 -1 0 0
134 1 1.6506510000000008 44.567549 4.951949999999998 0 0 0
135 1 -2.0000000000000003e-06 42.91686800000001 6.6026 0 0 0
136 1 1.650651 44.567549000000014 8.25325 0 0 0
137 1 -2.0000000000000003e-06 42.916868 9.903901 0 0 0
138 1 1.6506510000000003 44.56754900000001 11.55455 0 0 0
139 1 -2.0000000000000008e-06 42.916868 13.2052 0 0 0
140 1 1.6506510000000003 44.567549 14.85585 0 0 0
141 1 99.038999 46.218233 0.0 -1 0 0
142 1 1.6506510000000003 47.868817000000014 1.65065 0 0 0
143 1 -2.0000000000000003e-06 46.218233 3.3013 0 0 0
144 1 1.6506510000000003 47.868817 4.951949999999998 0 0 0
145 1 -2.0000000000000003e-06 46.218233000000005 6.6026 0 0 0
146 1 1.650651 47.868817000000014 8.25325 0 0 0
147 1 -2.0000000000000003e-06 46.218233 9.903901 0 0 0
148 1 1.6506510000000003 47.868816 11.55455 0 0 0
149 1 99.03899800000002 46.218233 13.2052 -1 0 0
150 1 1.6506510000000008 47.868816 14.85585 0 0 0
151 1 -2e-06 49.519501 0.0 0 0 0
152 1 1.6506510000000003 51.17018499999999 1.65065 0 0 0
153 1 -2.0000000000000003e-06 49.519501 3.3013 0 0 0
154 1 1.650651000000001 51.170184 4.951949999999998 0 0 0
155 1 -2.0000000000000003e-06 49.51950000000001 6.6026 0 0 0
156 1 1.6506510000000003 51.170184 8.25325 0 0 0
157 1 99.03899799999998 49.5195 9.903901 -1 0 0
158 1 1.6506510000000003 51.170184 11.55455 0 0 0
159 1 99.03899800000002 49.5195 13.2052 -1 0 0
160 1 1.6506500000000004 51.170183999999985 14.85585 0 0 0
161 1 -2e-06 52.820768 0.0 0 0 0
162 1 1.6506510000000008 54.471452000000006 1.65065 0 0 0
163 1 -2.0000000000000003e-06 52.820768 3.3013 0 0 0
164 1 1.650651000000001 54.471452000000006 4.951949999999998 0 0 0
165 1 99.03899799999999 52.820768 6.6026 -1 0 0
166 1 1.6506510000000003 54.471452000000006 8.25325 0 0 0
167 1 99.03899799999999 52.820767999999994 9.903901 -1 0 0
168 1 1.6506500000000004 54.471451 11.55455 0 0 0
169 1 99.03899800000003 52.820767999999994 13.2052 -1 0 0
170 1 1.65065 54.471450999999995 14.85585 0 0 0
171 1 -2.0000000000000003e-06 56.122136000000005 0.0 0 0 0
172 1 1.6506510000000003 57.772719 1.65065 0 0 0
173 1 99.03899799999999 56.12213600000002 3.3013 -1 0 0
174 1 1.650651000000001 57.77271900000001 4.951949999999998 0 0 0
175 1 99.03899799999998 56.122136000000005 6.6026 -1 0 0
176 1 1.6506499999999997 57.77271900000001 8.25325 0 0 0
177 1 99.03899799999999 56.122135 9.903901 -1 0 0
178 1 1.6506500000000004 57.77271900000001 11.55455 0 0 0
179 1 -3.0000000000000005e-06 56.122135 13.2052 0 0 0
180 1 1.6506500000000004 57.772719 14.85585 0 0 0
181 1 99.03899799999999 59.42340300000001 0.0 -1 0 0
182 1 1.6506510000000003 61.07408100000001 1.65065 0 0 0
183 1 99.03899800000002 59.42340300000001 3.3013 -1 0 0
184 1 1.6506500000000006 61.07408100000001 4.951949999999998 0 0 0
185 1 99.03899799999999 59.42340300000001 6.6026 -1 0 0
186 1 1.65065 61.07408100000001 8.25325 0 0 0
187 1 -3.0000000000000013e-06 59.423403 9.903901 0 0 0
188 1 1.6506500000000004 61.07408100000001 11.55455 0 0 0
189 1 -3.0000000000000005e-06 59.42340300000001 13.2052 0 0 0
190 1 1.6506500000000004 61.074081 14.85585 0 0 0
191 1 99.03899800000002 62.724671 0.0 -1 0 0
192 1 1.6506500000000004 64.375349 1.65065 0 0 0
193 1 99.03899799999999 62.72467000000001 3.3013 -1 0 0
194 1 1.6506500000000004 64.37534800000003 4.951949999999998 0 0 0
195 1 99.03899799999999 62.72467000000001 6.6026 -1 0 0
196 1 1.6506499999999997 64.375348 8.25325 0 0 0
197 1 -3.0000000000000026e-06 62.72467 9.903901 0 0 0
198 1 1.6506500000000004 64.37534800000002 11.55455 0 0 0
199 1 -3.0000000000000026e-06 62.72467 13.2052 0 0 0
200 1 1.65065 64.375348 14.85585 0 0 0
201 1 99.03899799999999 66.026032 0.0 -1 0 0
202 1 1.65065 67.676616 1.65065 0 0 0
203 1 99.038998 66.02603200000001 3.3013 -1 0 0
204 1 1.6506500000000006 67.676616 4.951949999999998 0 0 0
205 1 -3.0000000000000013e-06 66.026032 6.6026 0 0 0
206 1 1.6506499999999997 67.676616 8.25325 0 0 0
207 1 -3.0000000000000005e-06 66.026032 9.903901 0 0 0
208 1 1.65065 67.676615 11.55455 0 0 0
209 1 -3.000000000000001e-06 66.02603200000003 13.2052 0 0 0
210 1 1.6506499999999997 67.676615 14.85585 0 0 0
211 1 99.03899799999999 69.3273 0.0 -1 0 0
212 1 1.65065 70.97798400000002 1.65065 0 0 0
213 1 99.03899799999999 69.3273 3.3013 -1 0 0
214 1 1.6506500000000004 70.97798300000002 4.951949999999998 0 0 0
215 1 -3.0000000000000005e-06 69.3273 6.6026 0 0 0
216 1 1.6506499999999997 70.977983 8.25325 0 0 0
217 1 -3.0000000000000013e-06 69.327299 9.903901 0 0 0
218 1 1.65065 70.977983 11.55455 0 0 0
219 1 99.03899700000002 69.327299 13.2052 -1 0 0
220 1 1.6506489999999998 70.977983 14.85585 0 0 0
221 1 99.03899800000002 72.628567 0.0 -1 0 0
222 1 1.6506499999999997 74.279251 1.65065 0 0 0
223 1 -3.0000000000000018e-06 72.628567 3.3013 0 0 0
224 1 1.6506500000000004 74.27925100000003 4.951949999999998 0 0 0
225 1 -3.0000000000000005e-06 72.628567 6.6026 0 0 0
226 1 1.6506499999999993 74.279251 8.25325 0 0 0
227 1 99.038997 72.628567 9.903901 -1 0 0
228 1 1.6506489999999998 74.279251 11.55455 0 0 0
229 1 99.03899700000002 72.628567 13.2052 -1 0 0
230 1 1.6506490000000005 74.27925 14.85585 0 0 0
231 1 -3.0000000000000005e-06 75.929935 0.0 0 0 0
232 1 1.65065 77.58051800000003 1.65065 0 0 0
233 1 -3.000000000000001e-06 75.929935 3.3013 0 0 0
234 1 1.6506500000000006 77.58051800000003 4.951949999999998 0 0 0
235 1 99.03899699999998 75.929935 6.6026 -1 0 0
236 1 1.650649 77.580518 8.25325 0 0 0
237 1 99.038997 75.929935 9.903901 -1 0 0
238 1 1.650649 77.58051800000001 11.55455 0 0 0
239 1 99.038997 75.92993400000002 13.2052 -1 0 0
240 1 1.650649 77.580518 14.85585 0 0 0
241 1 -3.0000000000000013e-06 79.231202 0.0 0 0 0
242 1 1.6506500000000006 80.88188600000001 1.65065 0 0 0
243 1 99.03899700000002 79.23120200000001 3.3013 -1 0 0
244 1 1.6506490000000007 80.88188600000002 4.951949999999998 0 0 0
245 1 99.038997 79.231202 6.6026 -1 0 0
246 1 1.650649 80.881886 8.25325 0 0 0
247 1 99.03899700000002 79.231202 9.903901 -1 0 0
248 1 1.650649 80.88188600000001 11.55455 0 0 0
249 1 -4.000000000000001e-06 79.23120200000002 13.2052 0 0 0
250 1 1.650649 80.881886 14.85585 0 0 0
251 1 99.038997 82.53247 0.0 -1 0 0
252 1 1.6506490000000005 84.18315400000002 1.65065 0 0 0
253 1 99.038997 82.53247000000002 3.3013 -1 0 0
254 1 1.650649 84.18315300000003 4.951949999999998 0 0 0
255 1 99.03899700000001 82.532469 6.6026 -1 0 0
256 1 1.6506489999999998 84.18315300000002 8.25325 0 0 0
257 1 99.038997 82.532469 9.903901 -1 0 0
258 1 1.650649 84.18315300000003 11.55455 0 0 0
259 1 -4.000000000000001e-06 82.532469 13.2052 0 0 0
260 1 1.650649 84.183153 14.85585 0 0 0
261 1 99.038997 85.83383200000002 0.0 -1 0 0
262 1 1.650649 87.484421 1.65065 0 0 0
263 1 99.038997 85.833831 3.3013 -1 0 0
264 1 1.6506490000000007 87.48442100000003 4.951949999999998 0 0 0
265 1 99.03899699999998 85.833831 6.6026 -1 0 0
266 1 1.6506489999999998 87.484421 8.25325 0 0 0
267 1 -4e-06 85.833831 9.903901 0 0 0
268 1 1.650649 87.48442 11.55455 0 0 0
269 1 -4.0000000000000015e-06 85.833831 13.2052 0 0 0
270 1 1.6506489999999998 87.48442 14.85585 0 0 0
271 1 99.038997 89.135099 0.0 -1 0 0
272 1 1.650649 90.785783 1.65065 0 0 0
273 1 99.038997 89.135099 3.3013 -1 0 0
274 1 1.6506490000000007 90.78578300000002 4.951949999999998 0 0 0
275 1 99.03899699999998 89.135099 6.6026 -1 0 0
276 1 1.6506489999999998 90.785782 8.25325 0 0 0
277 1 -4.000000000000001e-06 89.135099 9.903901 0 0 0
278 1 1.650649 90.785782 11.55455 0 0 0
279 1 -4.000000000000001e-06 89.13509800000001 13.2052 0 0 0
280 1 1.650649 90.785782 14.85585 0 0 0
281 1 99.03899700000001 92.436366 0.0 -1 0 0
282 1 1.650649 94.08705000000002 1.65065 0 0 0
283 1 99.038997 92.43636600000002 3.3013 -1 0 0
284 1 1.650649 94.08705000000003 4.951949999999998 0 0 0
285 1 -4.000000000000001e-06 92.436366 6.6026 0 0 0
286 1 1.6506489999999998 94.08705 8.25325 0 0 0
287 1 -4e-06 92.436366 9.903901 0 0 0
288 1 1.6506489999999998 94.08705 11.55455 0 0 0
289 1 99.03899600000003 92.43636600000002 13.2052 -1 0 0
290 1 1.650648 94.08705 14.85585 0 0 0
291 1 99.038997 95.737734 0.0 -1 0 0
292 1 1.650649 97.38831800000003 1.65065 0 0 0
293 1 -4.0000000000000015e-06 95.73773400000002 3.3013 0 0 0
294 1 1.650649 97.388317 4.951949999999998 0 0 0
295 1 -4.000000000000001e-06 95.737734 6.6026 0 0 0
296 1 1.6506489999999994 97.388317 8.25325 0 0 0
297 1 99.038996 95.737734 9.903901 -1 0 0
298 1 1.650648 97.388317 11.55455 0 0 0
299 1 99.038996 95.73773400000002 13.2052 -1 0 0
300 1 1.650648 97.388317 14.85585 0 0 0
301 1 3.3012970000000004 0.0 0.0 0 0 0
302 1 4.95195 1.650653 1.65065 0 0 0
303 1 3.3012970000000004 0.0 3.3013 0 0 0
304 1 4.95195 1.650653 4.951949999999998 0 0 0
305 1 3.3012970000000017 0.0 6.6026 0 0 0
306 1 4.951950000000002 1.6506529999999995 8.25325 0 0 0
307 1 3.301296 -1.0587911840678754e-22 9.903901 0 0 0
308 1 4.95195 1.6506530000000006 11.55455 0 0 0
309 1 3.3012919999999983 99.03900000000002 13.2052 0 -1 0
310 1 4.951949 1.650653 14.85585 0 0 0
311 1 3.3012970000000004 3.3012970000000004 0.0 0 0 0
312 1 4.951949999999999 4.95195 1.65065 0 0 0
313 1 3.3012970000000004 3.301297 3.3013 0 0 0
314 1 4.95195 4.95195 4.951949999999998 0 0 0
315 1 3.301296000000001 3.3012970000000004 6.6026 0 0 0
316 1 4.951950000000001 4.95195 8.25325 0 0 0
317 1 3.301296 3.301295999999999 9.903901 0 0 0
318 1 4.951948999999998 4.95195 11.55455 0 0 0
319 1 3.301296 3.301296 13.2052 0 0 0
320 1 4.951948999999998 4.951949 14.85585 0 0 0
321 1 3.3012970000000013 6.602603 0.0 0 0 0
322 1 4.95195 8.253247000000002 1.65065 0 0 0
323 1 3.301296000000001 6.602603 3.3013 0 0 0
324 1 4.95195 8.253246 4.951949999999998 0 0 0
325 1 3.3012960000000016 6.602603 6.6026 0 0 0
326 1 4.951949000000002 8.253246 8.25325 0 0 0
327 1 3.3012960000000007 6.602603 9.903901 0 0 0
328 1 4.951948999999999 8.253246 11.55455 0 0 0
329 1 3.301296 6.602603 13.2052 0 0 0
330 1 4.951949 8.253246 14.85585 0 0 0
331 1 3.301296 9.9039 0.0 0 0 0
332 1 4.95195 11.554583000000003 1.65065 0 0 0
333 1 3.301295999999999 9.9039 3.3013 0 0 0
334 1 4.951949000000002 11.554583000000001 4.951949999999998 0 0 0
335 1 3.301296 9.9039 6.6026 0 0 0
336 1 4.951949 11.554583 8.25325 0 0 0
337 1 3.301296 9.9039 9.903901 0 0 0
338 1 4.951948999999998 11.554583000000003 11.55455 0 0 0
339 1 3.301295999999999 9.9039 13.2052 0 0 0
340 1 4.951949 11.554583 14.85585 0 0 0
341 1 3.301296 13.205167 0.0 0 0 0
342 1 4.951949 14.855851000000003 1.65065 0 0 0
343 1 3.3012960000000007 13.205167 3.3013 0 0 0
344 1 4.951949 14.855851 4.951949999999998 0 0 0
345 1 3.3012960000000007 13.205167 6.6026 0 0 0
346 1 4.951949 14.85585 8.25325 0 0 0
347 1 3.301296 13.205167 9.903901 0 0 0
348 1 4.951948999999998 14.855850000000004 11.55455 0 0 0
349 1 3.301295999999999 13.205165999999998 13.2052 0 0 0
350 1 4.951949 14.85585 14.85585 0 0 0
351 1 3.301296 16.506533 0.0 0 0 0
352 1 4.951949 18.157117 1.65065 0 0 0
353 1 3.301296 16.506533000000005 3.3013 0 0 0
354 1 4.951949 18.157117 4.951949999999998 0 0 0
355 1 3.301296000000001 16.506533 6.6026 0 0 0
356 1 4.951949 18.157116000000006 8.25325 0 0 0
357 1 3.3012960000000007 16.506533 9.903901 0 0 0
358 1 4.951948999999998 18.157116 11.55455 0 0 0
359 1 3.301295999999999 16.506533000000005 13.2052 0 0 0
360 1 4.951949 18.157116 14.85585 0 0 0
361 1 3.301295999999999 19.807801000000005 0.0 0 0 0
362 1 4.951948999999998 21.458483 1.65065 0 0 0
363 1 3.3012960000000007 19.807800000000004 3.3013 0 0 0
364 1 4.951949 21.458483 4.951949999999998 0 0 0
365 1 3.301296000000001 19.8078 6.6026 0 0 0
366 1 4.951949 21.458483000000005 8.25325 0 0 0
367 1 3.301296000000001 19.8078 9.903901 0 0 0
368 1 4.951948999999999 21.458482 11.55455 0 0 0
369 1 3.301295 19.8078 13.2052 0 0 0
370 1 4.951949 21.458482000000004 14.85585 0 0 0
371 1 3.301296 23.109068000000004 0.0 0 0 0
372 1 4.951949 24.75975 1.65065 0 0 0
373 1 3.301296 23.109068000000008 3.3013 0 0 0
374 1 4.951949 24.759750000000004 4.951949999999998 0 0 0
375 1 3.301296000000001 23.109068 6.6026 0 0 0
376 1 4.951949000000003 24.759750000000004 8.25325 0 0 0
377 1 3.301295 23.109068000000004 9.903901 0 0 0
378 1 4.951949 24.759750000000004 11.55455 0 0 0
379 1 3.301295 23.109067 13.2052 0 0 0
380 1 4.951948000000002 24.759750000000004 14.85585 0 0 0
381 1 3.301296 26.410434 0.0 0 0 0
382 1 4.951948999999999 28.06101800000001 1.65065 0 0 0
383 1 3.301296 26.410434 3.3013 0 0 0
384 1 4.951949 28.06101800000001 4.951949999999998 0 0 0
385 1 3.301295000000001 26.410434 6.6026 0 0 0
386 1 4.951949 28.061017000000014 8.25325 0 0 0
387 1 3.301295 26.410434 9.903901 0 0 0
388 1 4.951947999999998 28.061017000000003 11.55455 0 0 0
389 1 3.301294999999999 26.410434 13.2052 0 0 0
390 1 4.951948 28.06101700000001 14.85585 0 0 0
391 1 3.301295999999999 29.711702000000006 0.0 0 0 0
392 1 4.951949 31.362382 1.65065 0 0 0
393 1 3.301295000000001 29.711701 3.3013 0 0 0
394 1 4.951949000000002 31.362382000000007 4.951949999999998 0 0 0
395 1 3.301295000000002 29.711701 6.6026 0 0 0
396 1 4.9519480000000025 31.36238200000001 8.25325 0 0 0
397 1 3.301295 29.711701 9.903901 0 0 0
398 1 4.951948 31.362382 11.55455 0 0 0
399 1 3.301295 29.711701 13.2052 0 0 0
400 1 4.951948 31.362382000000007 14.85585 0 0 0
401 1 3.301295000000001 33.012966 0.0 0 0 0
402 1 4.951949 34.66365 1.65065 0 0 0
403 1 3.301295000000001 33.012966 3.3013 0 0 0
404 1 4.951948000000002 34.66365 4.951949999999998 0 0 0
405 1 3.3012950000000014 33.012966 6.6026 0 0 0
406 1 4.9519480000000025 34.66365 8.25325 0 0 0
407 1 3.301295 33.01296599999999 9.903901 0 0 0
408 1 4.951948 34.66364900000001 11.55455 0 0 0
409 1 3.301294999999999 33.012965 13.2052 0 0 0
410 1 4.951948 34.663649 14.85585 0 0 0
411 1 3.301294999999999 36.314334 0.0 0 0 0
412 1 4.951948 37.964917000000014 1.65065 0 0 0
413 1 3.301294999999999 36.314334 3.3013 0 0 0
414 1 4.951948000000001 37.964917 4.951949999999998 0 0 0
415 1 3.301295000000001 36.31433400000001 6.6026 0 0 0
416 1 4.951948000000002 37.964917000000014 8.25325 0 0 0
417 1 3.3012950000000014 36.314333 9.903901 0 0 0
418 1 4.951948 37.964917000000014 11.55455 0 0 0
419 1 3.301295000000001 36.314333 13.2052 0 0 0
420 1 4.951948000000001 37.964917 14.85585 0 0 0
421 1 3.301295000000001 39.615601 0.0 0 0 0
422 1 4.951948 41.266285 1.65065 0 0 0
423 1 3.301295 39.615601 3.3013 0 0 0
424 1 4.951948 41.266285 4.951949999999998 0 0 0
425 1 3.3012950000000014 39.61560100000001 6.6026 0 0 0
426 1 4.951948000000002 41.26628500000002 8.25325 0 0 0
427 1 3.301295 39.615601 9.903901 0 0 0
428 1 4.951948 41.266285 11.55455 0 0 0
429 1 3.301295 39.615601 13.2052 0 0 0
430 1 4.951948000000001 41.266284 14.85585 0 0 0
431 1 3.301295 42.916869000000005 0.0 0 0 0
432 1 4.951948 44.56754900000001 1.65065 0 0 0
433 1 3.301295 42.916868 3.3013 0 0 0
434 1 4.951948000000002 44.567549 4.951949999999998 0 0 0
435 1 3.3012950000000014 42.91686800000001 6.6026 0 0 0
436 1 4.9519480000000025 44.567549000000014 8.25325 0 0 0
437 1 3.301295000000001 42.916868 9.903901 0 0 0
438 1 4.951948 44.56754900000001 11.55455 0 0 0
439 1 3.301294 42.916868 13.2052 0 0 0
440 1 4.951948000000002 44.567549 14.85585 0 0 0
441 1 3.301295 46.218233 0.0 0 0 0
442 1 4.951948 47.868817000000014 1.65065 0 0 0
443 1 3.301295000000001 46.218233 3.3013 0 0 0
444 1 4.951948000000001 47.868817 4.951949999999998 0 0 0
445 1 3.3012950000000014 46.218233000000005 6.6026 0 0 0
446 1 4.951948000000002 47.868817000000014 8.25325 0 0 0
447 1 3.301294 46.218233 9.903901 0 0 0
448 1 4.951947999999998 47.868816 11.55455 0 0 0
449 1 3.3012939999999995 46.218233 13.2052 0 0 0
450 1 4.951947 47.868816 14.85585 0 0 0
451 1 3.301295 49.519501 0.0 0 0 0
452 1 4.951948000000001 51.17018499999999 1.65065 0 0 0
453 1 3.301295 49.519501 3.3013 0 0 0
454 1 4.951948000000001 51.170184 4.951949999999998 0 0 0
455 1 3.301294000000002 49.51950000000001 6.6026 0 0 0
456 1 4.951948000000002 51.170184 8.25325 0 0 0
457 1 3.3012940000000013 49.5195 9.903901 0 0 0
458 1 4.951947 51.170184 11.55455 0 0 0
459 1 3.3012939999999995 49.5195 13.2052 0 0 0
460 1 4.951947 51.170183999999985 14.85585 0 0 0
461 1 3.301295 52.820768 0.0 0 0 0
462 1 4.951948 54.471452000000006 1.65065 0 0 0
463 1 3.301294 52.820768 3.3013 0 0 0
464 1 4.951948 54.471452000000006 4.951949999999998 0 0 0
465 1 3.301294000000001 52.820768 6.6026 0 0 0
466 1 4.951947 54.471452000000006 8.25325 0 0 0
467 1 3.301294 52.820767999999994 9.903901 0 0 0
468 1 4.951947 54.471451 11.55455 0 0 0
469 1 3.3012939999999995 52.820767999999994 13.2052 0 0 0
470 1 4.951947000000001 54.471450999999995 14.85585 0 0 0
471 1 3.301294000000001 56.122136000000005 0.0 0 0 0
472 1 4.951948 57.772719 1.65065 0 0 0
473 1 3.301294000000001 56.12213600000002 3.3013 0 0 0
474 1 4.9519470000000005 57.77271900000001 4.951949999999998 0 0 0
475 1 3.3012940000000013 56.122136000000005 6.6026 0 0 0
476 1 4.951947000000001 57.77271900000001 8.25325 0 0 0
477 1 3.301294 56.122135 9.903901 0 0 0
478 1 4.951947 57.77271900000001 11.55455 0 0 0
479 1 3.301294 56.122135 13.2052 0 0 0
480 1 4.9519470000000005 57.772719 14.85585 0 0 0
481 1 3.301294 59.42340300000001 0.0 0 0 0
482 1 4.951947 61.07408100000001 1.65065 0 0 0
483 1 3.301294 59.42340300000001 3.3013 0 0 0
484 1 4.951947000000001 61.07408100000001 4.951949999999998 0 0 0
485 1 3.301294000000001 59.42340300000001 6.6026 0 0 0
486 1 4.9519470000000005 61.07408100000001 8.25325 0 0 0
487 1 3.3012939999999995 59.423403 9.903901 0 0 0
488 1 4.951946999999999 61.07408100000001 11.55455 0 0 0
489 1 3.3012939999999995 59.42340300000001 13.2052 0 0 0
490 1 4.951947 61.074081 14.85585 0 0 0
491 1 3.301294 62.724671 0.0 0 0 0
492 1 4.951947 64.375349 1.65065 0 0 0
493 1 3.301294 62.72467000000001 3.3013 0 0 0
494 1 4.951947000000001 64.37534800000003 4.951949999999998 0 0 0
495 1 3.3012940000000013 62.72467000000001 6.6026 0 0 0
496 1 4.951947000000001 64.375348 8.25325 0 0 0
497 1 3.301294 62.72467 9.903901 0 0 0
498 1 4.951947 64.37534800000002 11.55455 0 0 0
499 1 3.3012939999999995 62.72467 13.2052 0 0 0
500 1 4.9519470000000005 64.375348 14.85585 0 0 0
501 1 3.301294 66.026032 0.0 0 0 0
502 1 4.951947 67.676616 1.65065 0 0 0
503 1 3.301294 66.02603200000001 3.3013 0 0 0
504 1 4.951947 67.676616 4.951949999999998 0 0 0
505 1 3.3012940000000013 66.026032 6.6026 0 0 0
506 1 4.951947000000001 67.676616 8.25325 0 0 0
507 1 3.301294000000001 66.026032 9.903901 0 0 0
508 1 4.951946999999998 67.676615 11.55455 0 0 0
509 1 3.301293 66.02603200000003 13.2052 0 0 0
510 1 4.951947 67.676615 14.85585 0 0 0
511 1 3.3012939999999995 69.3273 0.0 0 0 0
512 1 4.951947 70.97798400000002 1.65065 0 0 0
513 1 3.3012939999999995 69.3273 3.3013 0 0 0
514 1 4.951947 70.97798300000002 4.951949999999998 0 0 0
515 1 3.301294 69.3273 6.6026 0 0 0
516 1 4.951947000000001 70.977983 8.25325 0 0 0
517 1 3.3012930000000003 69.327299 9.903901 0 0 0
518 1 4.951947 70.977983 11.55455 0 0 0
519 1 3.301293 69.327299 13.2052 0 0 0
520 1 4.951946000000001 70.977983 14.85585 0 0 0
521 1 3.301294 72.628567 0.0 0 0 0
522 1 4.951947 74.279251 1.65065 0 0 0
523 1 3.301294 72.628567 3.3013 0 0 0
524 1 4.951947 74.27925100000003 4.951949999999998 0 0 0
525 1 3.301293000000001 72.628567 6.6026 0 0 0
526 1 4.951947 74.279251 8.25325 0 0 0
527 1 3.3012930000000003 72.628567 9.903901 0 0 0
528 1 4.951946 74.279251 11.55455 0 0 0
529 1 3.3012930000000003 72.628567 13.2052 0 0 0
530 1 4.951946000000001 74.27925 14.85585 0 0 0
531 1 3.3012939999999995 75.929935 0.0 0 0 0
532 1 4.951947 77.58051800000003 1.65065 0 0 0
533 1 3.301293 75.929935 3.3013 0 0 0
534 1 4.9519470000000005 77.58051800000003 4.951949999999998 0 0 0
535 1 3.301293000000001 75.929935 6.6026 0 0 0
536 1 4.951946000000002 77.580518 8.25325 0 0 0
537 1 3.301293 75.929935 9.903901 0 0 0
538 1 4.951946 77.58051800000001 11.55455 0 0 0
539 1 3.3012930000000003 75.92993400000002 13.2052 0 0 0
540 1 4.951946000000002 77.580518 14.85585 0 0 0
541 1 3.3012930000000003 79.231202 0.0 0 0 0
542 1 4.951947 80.88188600000001 1.65065 0 0 0
543 1 3.3012930000000003 79.23120200000001 3.3013 0 0 0
544 1 4.951946000000002 80.88188600000002 4.951949999999998 0 0 0
545 1 3.3012930000000016 79.231202 6.6026 0 0 0
546 1 4.951946000000002 80.881886 8.25325 0 0 0
547 1 3.3012930000000003 79.231202 9.903901 0 0 0
548 1 4.951946 80.88188600000001 11.55455 0 0 0
549 1 3.301293 79.23120200000002 13.2052 0 0 0
550 1 4.951946 80.881886 14.85585 0 0 0
551 1 3.3012930000000003 82.53247 0.0 0 0 0
552 1 4.951946000000001 84.18315400000002 1.65065 0 0 0
553 1 3.301293000000001 82.53247000000002 3.3013 0 0 0
554 1 4.951946 84.18315300000003 4.951949999999998 0 0 0
555 1 3.3012930000000016 82.532469 6.6026 0 0 0
556 1 4.951946000000002 84.18315300000002 8.25325 0 0 0
557 1 3.301293000000001 82.532469 9.903901 0 0 0
558 1 4.951946 84.18315300000003 11.55455 0 0 0
559 1 3.301293 82.532469 13.2052 0 0 0
560 1 4.951946 84.183153 14.85585 0 0 0
561 1 3.301293 85.83383200000002 0.0 0 0 0
562 1 4.951945999999999 87.484421 1.65065 0 0 0
563 1 3.3012930000000003 85.833831 3.3013 0 0 0
564 1 4.951946 87.48442100000003 4.951949999999998 0 0 0
565 1 3.3012930000000016 85.833831 6.6026 0 0 0
566 1 4.951946000000001 87.484421 8.25325 0 0 0
567 1 3.301293000000001 85.833831 9.903901 0 0 0
568 1 4.951946000000001 87.48442 11.55455 0 0 0
569 1 3.3012930000000003 85.833831 13.2052 0 0 0
570 1 4.951946000000002 87.48442 14.85585 0 0 0
571 1 3.3012930000000003 89.135099 0.0 0 0 0
572 1 4.951946 90.785783 1.65065 0 0 0
573 1 3.301293 89.135099 3.3013 0 0 0
574 1 4.951946000000001 90.78578300000002 4.951949999999998 0 0 0
575 1 3.301293000000001 89.135099 6.6026 0 0 0
576 1 4.951946000000002 90.785782 8.25325 0 0 0
577 1 3.3012930000000003 89.135099 9.903901 0 0 0
578 1 4.951946 90.785782 11.55455 0 0 0
579 1 3.301292 89.13509800000001 13.2052 0 0 0
580 1 4.951946000000001 90.785782 14.85585 0 0 0
581 1 3.301293000000001 92.436366 0.0 0 0 0
582 1 4.951946000000001 94.08705000000002 1.65065 0 0 0
583 1 3.3012930000000003 92.43636600000002 3.3013 0 0 0
584 1 4.951946000000002 94.08705000000003 4.951949999999998 0 0 0
585 1 3.301293000000001 92.436366 6.6026 0 0 0
586 1 4.951946000000002 94.08705 8.25325 0 0 0
587 1 3.3012920000000006 92.436366 9.903901 0 0 0
588 1 4.951946 94.08705 11.55455 0 0 0
589 1 3.3012920000000006 92.43636600000002 13.2052 0 0 0
590 1 4.951945 94.08705 14.85585 0 0 0
591 1 3.301293 95.737734 0.0 0 0 0
592 1 4.951946 97.38831800000003 1.65065 0 0 0
593 1 3.301293 95.73773400000002 3.3013 0 0 0
594 1 4.951946000000002 97.388317 4.951949999999998 0 0 0
595 1 3.3012920000000014 95.737734 6.6026 0 0 0
596 1 4.951946000000002 97.388317 8.25325 0 0 0
597 1 3.3012920000000006 95.737734 9.903901 0 0 0
598 1 4.951945 97.388317 11.55455 0 0 0
599 1 3.3012919999999992 95.73773400000002 13.2052 0 0 0
600 1 4.951945000000001 97.388317 14.85585 0 0 0
601 1 6.602603 0.0 0.0 0 0 0
602 1 8.253247000000004 1.650653 1.65065 0 0 0
603 1 6.602603000000002 0.0 3.3013 0 0 0
604 1 8.253246 1.650653 4.951949999999998 0 0 0
605 1 6.602603 0.0 6.6026 0 0 0
606 1 8.253246 1.6506529999999995 8.25325 0 0 0
607 1 6.602603000000002 -1.0587911840678754e-22 9.903901 0 0 0
608 1 8.253246000000004 1.6506530000000006 11.55455 0 0 0
609 1 6.602599000000003 99.03900000000002 13.2052 0 -1 0
610 1 8.253246000000004 1.650653 14.85585 0 0 0
611 1 6.602603 3.3012970000000004 0.0 0 0 0