LAMMPS data file via write_data, version 29 Oct 2020, timestep = 100

804 atoms
2 atom types
252 bonds
1 bond types
0 angles
1 angle types

0.0 16.529 xlo xhi
0.0 16.529 ylo yhi
0.0 50.0 zlo zhi

Masses

1 180.94788
2 180.94788

Bond Coeffs # harmonic

1 530 1.211

Atoms # full

1 0 1 0.0 1.1022692534346093e-05 16.5289978292085 0.18216944401913568 0 -1 0
2 0 1 0.0 1.6528607078244886 1.6528670583217493 1.5213376720698335 0 0 0
3 0 1 0.0 3.3058083950136554 7.747954702498091e-06 0.18213528154120434 0 0 0
4 0 1 0.0 4.958711142247894 1.6528588300279423 1.5214495868225146 0 0 0
11 0 1 0.0 1.4153018259296515e-05 3.305808841843758 0.1821140563154926 0 0 0
12 0 1 0.0 1.652866433464109 4.958714126278795 1.5214186095177995 0 0 0
13 0 1 0.0 3.305809470663761 3.305806755704327 0.18209198440949742 0 0 0
14 0 1 0.0 4.958718321342844 4.958721301978796 1.5214652364307764 0 0 0
51 0 1 0.0 16.528954710088012 16.528966066856086 3.204602755363562 -1 -1 0
52 0 1 0.0 1.6527953233970767 1.6527828908369062 4.965780819352935 0 0 0
53 0 1 0.0 3.3058439532586754 16.528959164682476 3.2047252312431422 0 -1 0
54 0 1 0.0 4.958897262243354 1.6533136677205733 4.964415174455794 0 0 0
61 0 1 0.0 8.614776422888326e-06 3.3058237575080796 3.2047358042197662 0 0 0
62 0 1 0.0 1.6528892361055703 4.958570154816417 4.965428067261822 0 0 0
63 0 1 0.0 3.3058412847860934 3.305825313851892 3.2048426988489376 0 0 0
64 0 1 0.0 4.958607580127373 4.958612089979362 4.965761975709778 0 0 0
5 0 1 0.0 6.611593174096752 2.1844995038559204e-06 0.1821793377352286 0 0 0
6 0 1 0.0 8.264507105709479 1.6528631285490731 1.5213797876169501 0 0 0
7 0 1 0.0 9.917401646974758 1.2296778704017957e-05 0.18214303604215548 0 0 0
15 0 1 0.0 6.61158371231692 3.305809463436771 0.18209831131363602 0 0 0
16 0 1 0.0 8.264494214948769 4.958722684099348 1.5214793742383128 0 0 0
17 0 1 0.0 9.917415374582923 3.3058085068749548 0.1821147430730536 0 0 0
55 0 1 0.0 6.611607088701599 16.52898529102131 3.2047426651597446 0 -1 0
56 0 1 0.0 8.26453561832257 1.6529997422742975 4.965211765734362 0 0 0
57 0 1 0.0 9.917402139429075 16.528988312880585 3.204799010939451 0 -1 0
65 0 1 0.0 6.611573148224896 3.3058440337629253 3.2048207864780465 0 0 0
66 0 1 0.0 8.264597146015038 4.958599009077757 4.965662257595936 0 0 0
67 0 1 0.0 9.917413186409055 3.305839272349788 3.2048875944595534 0 0 0
8 0 1 0.0 11.570294135928288 1.6528787625884256 1.5214206304033617 0 0 0
9 0 1 0.0 13.223185003903087 16.528998793155644 0.182166000356914 0 -1 0
10 0 1 0.0 14.876127370416555 1.652872738931239 1.5213094574307195 0 0 0
18 0 1 0.0 11.570303325204646 4.958714157906135 1.5214731413689708 0 0 0
19 0 1 0.0 13.223176296702157 3.3058075000645673 0.18208748278370968 0 0 0
20 0 1 0.0 14.876116177814882 4.958710377304832 1.5213648592226297 0 0 0
58 0 1 0.0 11.570441995285563 1.6529524157201332 4.965369688098722 0 0 0
59 0 1 0.0 13.22320720657382 3.837899441805348e-06 3.204664770006677 0 0 0
60 0 1 0.0 14.875807574611331 1.6534871271095082 4.964165856048408 0 0 0
68 0 1 0.0 11.57031334737506 4.958660925110977 4.965574165871376 0 0 0
69 0 1 0.0 13.223182572976446 3.3058500410646374 3.204737457896772 0 0 0
70 0 1 0.0 14.876094561718638 4.95852750801475 4.965654521437068 0 0 0
21 0 1 0.0 1.0301515024986915e-05 6.61159108584059 0.18215124161281737 0 0 0
22 0 1 0.0 1.6528795873633153 8.264506803874488 1.5213701771640917 0 0 0
23 0 1 0.0 3.3058090130839313 6.611589452107298 0.18211444634412088 0 0 0
24 0 1 0.0 4.9587065709429545 8.26448371171751 1.5214065882167738 0 0 0
31 0 1 0.0 8.597504207564497e-06 9.917408708447649 0.1821480786903655 0 0 0
33 0 1 0.0 3.3058130664656202 9.917409157545427 0.18210840670294828 0 0 0
71 0 1 0.0 3.226794927897443e-05 6.611628546479786 3.2047253987087707 0 0 0
72 0 1 0.0 1.6529809737475143 8.264584453568508 4.965362932143247 0 0 0
73 0 1 0.0 3.3058546316205057 6.611556700936894 3.204720750672868 0 0 0
74 0 1 0.0 4.958672825816839 8.264618591754102 4.965776183472813 0 0 0
81 0 1 0.0 6.16234269837658e-05 9.91740514679978 3.2048955524335603 0 0 0
83 0 1 0.0 3.3057607852343933 9.917422670641827 3.204769619780437 0 0 0
25 0 1 0.0 6.611597195048822 6.611590885873616 0.1821277382093237 0 0 0
26 0 1 0.0 8.264494047018731 8.26451378083997 1.5214705824850658 0 0 0
27 0 1 0.0 9.917403623757211 6.611591936402896 0.18212071212113462 0 0 0
35 0 1 0.0 6.611593232009225 9.917417608845675 0.18215059252769528 0 0 0
37 0 1 0.0 9.917400675634296 9.917398179409645 0.1821134352643361 0 0 0
75 0 1 0.0 6.611595986892588 6.611584774094893 3.2047646086097417 0 0 0
76 0 1 0.0 8.264505924388683 8.264525449388032 4.965447658381305 0 0 0
77 0 1 0.0 9.917404971666569 6.611589963527616 3.2048308634490703 0 0 0
85 0 1 0.0 6.611610066728672 9.917378205609953 3.2047742199079217 0 0 0
87 0 1 0.0 9.917390444689977 9.917394997287424 3.2048647164590536 0 0 0
28 0 1 0.0 11.570303714036054 8.264490912427119 1.5214151470644521 0 0 0
29 0 1 0.0 13.22317914205824 6.611590480288725 0.1821302426708331 0 0 0
30 0 1 0.0 14.876114667607965 8.264486052811176 1.521333762449773 0 0 0
39 0 1 0.0 13.223183776322685 9.917412065802163 0.1821372216599557 0 0 0
78 0 1 0.0 11.57020574337049 8.264689043212728 4.965600470661488 0 0 0
79 0 1 0.0 13.22312376677493 6.611553175136436 3.204719242298923 0 0 0
80 0 1 0.0 14.876156654510106 8.264415752376832 4.9651215767604775 0 0 0
89 0 1 0.0 13.223184645602025 9.917370386869008 3.2047739940332547 0 0 0
32 0 1 0.0 1.6528822337856548 11.570312981215814 1.5213138512444724 0 0 0
34 0 1 0.0 4.958711615701064 11.570317085232036 1.5214512966368061 0 0 0
41 0 1 0.0 2.2772504344896864e-06 13.223191514138728 0.18213296523659647 0 0 0
42 0 1 0.0 1.6528684241197038 14.876097887999649 1.521383723127623 0 0 0
43 0 1 0.0 3.30580927024979 13.223185585527775 0.18207751708787218 0 0 0
44 0 1 0.0 4.958704386927653 14.87611997195187 1.5213769472950096 0 0 0
82 0 1 0.0 1.65296202965541 11.570639048113568 4.965874374023691 0 0 0
84 0 1 0.0 4.958883666457954 11.570179690925592 4.964883315440688 0 0 0
91 0 1 0.0 1.3017870664100428e-05 13.223208545724685 3.2048789232091526 0 0 0
92 0 1 0.0 1.6529670885747683 14.876025126531713 4.96681156831489 0 0 0
93 0 1 0.0 3.3058691547990624 13.223270467127364 3.204748004801109 0 0 0
94 0 1 0.0 4.958512211184268 14.87585002691605 4.966688175946218 0 0 0
36 0 1 0.0 8.264498882086563 11.570279916014538 1.521409001219497 0 0 0
45 0 1 0.0 6.611585692941686 13.223178543005794 0.18211038287345588 0 0 0
46 0 1 0.0 8.264479284120755 14.876121203237252 1.5214182826266354 0 0 0
47 0 1 0.0 9.91740482072105 13.223188290922067 0.1821136276651633 0 0 0
86 0 1 0.0 8.264550117601761 11.570304412757602 4.9655858983402705 0 0 0
95 0 1 0.0 6.6115943497530445 13.223230828431921 3.2048334035343604 0 0 0
96 0 1 0.0 8.2645755927596 14.87604149497276 4.965823291451293 0 0 0
97 0 1 0.0 9.917349089406466 13.223208211362726 3.2047946149179904 0 0 0
38 0 1 0.0 11.570288994391746 11.57028672404973 1.5213700897957234 0 0 0
40 0 1 0.0 14.876116491334669 11.570326672099432 1.5213309592375537 0 0 0
48 0 1 0.0 11.570318241320678 14.876127716790204 1.5213573275207364 0 0 0
49 0 1 0.0 13.223196851968465 13.223189796435078 0.182119681778055 0 0 0
50 0 1 0.0 14.876128806364664 14.876104673298029 1.5213509851927822 0 0 0
88 0 1 0.0 11.570215647374113 11.570315733569757 4.96530487292134 0 0 0
90 0 1 0.0 14.875880195286477 11.569999262591045 4.964199533399688 0 0 0
98 0 1 0.0 11.570118278909504 14.875873992080926 4.965537495596618 0 0 0
99 0 1 0.0 13.223192595300869 13.223244978400679 3.2047230393214883 0 0 0
100 0 1 0.0 14.876332964910782 14.876213505011547 4.966495234065585 0 0 0
101 0 1 0.0 8.300784234549496e-05 16.52853751137125 6.6064541030635695 0 -1 0
102 0 1 0.0 1.6556595035258526 1.658171631976005 8.256131546321507 0 0 0
103 0 1 0.0 3.305755493869816 16.528503444705336 6.606684096585825 0 -1 0
104 0 1 0.0 4.9567992700225645 1.653385176724426 8.253655029722259 0 0 0
111 0 1 0.0 16.528976178220105 3.3067685275341288 6.605494781199124 -1 0 0
112 0 1 0.0 1.6551335263110551 4.957128912304031 8.255026276477883 0 0 0
113 0 1 0.0 3.305153062336192 3.306258260718143 6.607599408176062 0 0 0
114 0 1 0.0 4.9603874788218825 4.959080208372417 8.253418997539667 0 0 0
151 0 1 0.0 0.0035101187135937544 0.0005448530607274904 9.916603459129492 0 0 0
153 0 1 0.0 3.307413885533203 0.006200703560541027 9.915888119970113 0 0 0
161 0 1 0.0 0.003338562437325224 3.3085046569686822 9.926441340181187 0 0 0
163 0 1 0.0 3.304042322263134 3.306794666740087 9.924773230431207 0 0 0
105 0 1 0.0 6.611830703996393 16.527989032380724 6.60550454264641 0 -1 0
106 0 1 0.0 8.263676099828842 1.6550681551820197 8.255700782493578 0 0 0
107 0 1 0.0 9.917309545673112 16.52834796907582 6.6062049507413825 0 -1 0
115 0 1 0.0 6.611806927964143 3.305478527664078 6.607744524329775 0 0 0
116 0 1 0.0 8.263930330433935 4.958416194706487 8.254943719412402 0 0 0
117 0 1 0.0 9.917227764735324 3.3056724889183933 6.606884426388437 0 0 0
155 0 1 0.0 6.611677031854319 16.524901014764175 9.918367026981645 0 -1 0
157 0 1 0.0 9.913446840709952 0.0017069024549312964 9.91527725984871 0 0 0
165 0 1 0.0 6.614874712393845 3.3084702902918544 9.922895317940764 0 0 0
167 0 1 0.0 9.915218240790868 3.305536180591514 9.924831954846754 0 0 0
108 0 1 0.0 11.569205291613153 1.654912591388494 8.251630565469812 0 0 0
109 0 1 0.0 13.222777443793149 16.52857286876815 6.604311100898892 0 -1 0
110 0 1 0.0 14.875896648671736 1.6541036079854714 8.260109305531707 0 0 0
118 0 1 0.0 11.56787844723705 4.958763544488457 8.252208824513126 0 0 0
119 0 1 0.0 13.223903893902976 3.305315673842072 6.608449188651523 0 0 0
120 0 1 0.0 14.874429162289374 4.958847059534591 8.257993545531233 0 0 0
159 0 1 0.0 13.223488739008351 16.52693338336496 9.924641321945323 0 -1 0
169 0 1 0.0 13.220426808357846 3.3074700461335342 9.92780871806541 0 0 0
121 0 1 0.0 16.52825063882886 6.61169475467435 6.604934846644408 -1 0 0
122 0 1 0.0 1.6545536885700425 8.265592496113268 8.256966347138471 0 0 0
123 0 1 0.0 3.3058897821325166 6.611970166336433 6.606460129881658 0 0 0
124 0 1 0.0 4.960201695083117 8.26379495324821 8.257750567547573 0 0 0
131 0 1 0.0 0.00047039326895322465 9.916481901857646 6.605828667025139 0 0 0
133 0 1 0.0 3.3049985335514505 9.916270543701849 6.607359485699994 0 0 0
171 0 1 0.0 16.523966828556123 6.613184058933654 9.9215689407906 -1 0 0
173 0 1 0.0 3.3073381811391807 6.610246877879245 9.923429282376656 0 0 0
181 0 1 0.0 0.0006966691712425594 9.914189240805703 9.919503844578603 0 0 0
183 0 1 0.0 3.3067693450306725 9.913428204834076 9.925519882102593 0 0 0
125 0 1 0.0 6.611624074332844 6.611953480836936 6.606447110464335 0 0 0
126 0 1 0.0 8.264365968464821 8.263539578509025 8.258834631307066 0 0 0
127 0 1 0.0 9.917263155038942 6.611827003840298 6.60718298916673 0 0 0
135 0 1 0.0 6.611329325673215 9.916974185891776 6.606800988443528 0 0 0
137 0 1 0.0 9.917476704598386 9.91751295843918 6.607501671982787 0 0 0
175 0 1 0.0 6.610286215654266 6.61209971191827 9.920189961280261 0 0 0
177 0 1 0.0 9.915292268959961 6.610650805221123 9.919496265455733 0 0 0
185 0 1 0.0 6.611294182997713 9.913741214628967 9.92027087117955 0 0 0
187 0 1 0.0 9.917131348005093 9.914409852579473 9.919371472755529 0 0 0
128 0 1 0.0 11.568613303400417 8.264680030163124 8.25589200512852 0 0 0
129 0 1 0.0 13.22392731614423 6.611788181519703 6.604921709572029 0 0 0
130 0 1 0.0 14.87468807880139 8.263541758853714 8.258648949701346 0 0 0
139 0 1 0.0 13.2237596442778 9.917062889893948 6.605629466404596 0 0 0
179 0 1 0.0 13.2286593578422 6.6134691949932085 9.924730086361569 0 0 0
189 0 1 0.0 13.22078425317251 9.911208918306444 9.923574083048033 0 0 0
132 0 1 0.0 1.6537952843139092 11.564488014467265 8.251258052131256 0 0 0
134 0 1 0.0 4.957562788927513 11.568827030664137 8.25183084815286 0 0 0
141 0 1 0.0 0.0003489846224020159 13.223713422675104 6.605423061967522 0 0 0
142 0 1 0.0 1.6576804872842403 14.876582520932798 8.2673767621547 0 0 0
143 0 1 0.0 3.305150967304869 13.22416423732013 6.607410847316188 0 0 0
144 0 1 0.0 4.960555761985666 14.876525986350098 8.259973496658672 0 0 0
191 0 1 0.0 16.526759312482042 13.220822411611776 9.923458714430351 -1 0 0
193 0 1 0.0 3.3073222129406052 13.219194193190868 9.931202694135985 0 0 0
136 0 1 0.0 8.264312212223015 11.568238851602253 8.251305246732512 0 0 0
145 0 1 0.0 6.612432896539841 13.224327534452607 6.606471633029554 0 0 0
146 0 1 0.0 8.263262318570234 14.876377578837046 8.261054248438516 0 0 0
147 0 1 0.0 9.917358602709163 13.223564455410703 6.606242059245779 0 0 0
195 0 1 0.0 6.612501286051169 13.227251957741291 9.924310222757644 0 0 0
197 0 1 0.0 9.920423291663415 13.22300459756837 9.93136040307679 0 0 0
138 0 1 0.0 11.568714648713536 11.568191635594049 8.251957284310748 0 0 0
140 0 1 0.0 14.877094599413 11.567386755929062 8.251554512726168 0 0 0
148 0 1 0.0 11.56771563492469 14.874967739122214 8.259807880301897 0 0 0
149 0 1 0.0 13.22247259978765 13.22413829258187 6.604901070380152 0 0 0
150 0 1 0.0 14.871449590543879 14.878305337663893 8.256530966654024 0 0 0
199 0 1 0.0 13.221175903209618 13.22583568140309 9.923891354616837 0 0 0
152 0 1 0.0 1.6515435860658758 1.6573296732861882 11.570195302723857 0 0 0
154 0 1 0.0 4.952840585714578 1.6509198229685222 11.546521654084676 0 0 0
162 0 1 0.0 1.6507223361191685 4.962020470756842 11.562360575053619 0 0 0
164 0 1 0.0 4.957435824821355 4.956659564165468 11.5313823142974 0 0 0
201 0 1 0.0 16.43643204407749 0.059135589449416694 13.129711470246937 -1 0 0
202 0 1 0.0 1.6395268377592558 1.6368049075497397 14.856967737101893 0 0 0
203 0 1 0.0 3.3680081404465856 0.04702477188029693 13.213980941697812 0 0 0
204 0 1 0.0 4.964642841153291 1.6026302419135074 14.944262632222864 0 0 0
211 0 1 0.0 0.01550176445105698 3.3257674959662666 13.227607360149523 0 0 0
212 0 1 0.0 1.643921214159118 4.9533824472253105 14.947795563075292 0 0 0
213 0 1 0.0 3.3042159331214638 3.31055495610487 13.199359809508955 0 0 0
214 0 1 0.0 4.941034385918383 4.973375947155405 14.944526317263318 0 0 0
156 0 1 0.0 8.267421914718977 1.6550120969183826 11.543166223333127 0 0 0
166 0 1 0.0 8.263520541688118 4.96273759106994 11.528184235413207 0 0 0
205 0 1 0.0 6.630217214662114 0.0072659164324267176 13.20253933189489 0 0 0
206 0 1 0.0 8.289203178321548 1.6225416965580906 14.972327835134687 0 0 0
207 0 1 0.0 9.923510090395233 16.52137409197146 13.180152396551215 0 -1 0
215 0 1 0.0 6.613650099196643 3.3175307009274446 13.173999423185293 0 0 0
216 0 1 0.0 8.28292383521705 4.932310383686911 15.00567964888425 0 0 0
217 0 1 0.0 9.919990809390177 3.326363278910761 13.183492133058788 0 0 0
158 0 1 0.0 11.578042300713307 1.6496796672021734 11.553372236712095 0 0 0
160 0 1 0.0 14.874401321321564 1.6512019078303648 11.583715349964503 0 0 0
168 0 1 0.0 11.577789668901252 4.958738796501614 11.536640063954744 0 0 0
170 0 1 0.0 14.87587813924319 4.96093418094872 11.559094192497474 0 0 0
208 0 1 0.0 11.547960846470327 1.6222177198249341 14.96619426301732 0 0 0
209 0 1 0.0 13.225131539227318 16.49722882005167 13.215532678055217 0 -1 0
210 0 1 0.0 14.90749445733436 1.5311946892154644 14.698177758513387 0 0 0
218 0 1 0.0 11.587513139581425 4.975130940440051 14.984980967563192 0 0 0
219 0 1 0.0 13.20662057447891 3.324615170758274 13.199092991559926 0 0 0
220 0 1 0.0 14.884355618764985 5.005376287937392 14.895469276821613 0 0 0
172 0 1 0.0 1.6526506520424478 8.268254953427693 11.555660778794655 0 0 0
174 0 1 0.0 4.957389095221266 8.269957133030488 11.546534876087721 0 0 0
221 0 1 0.0 0.008000621951364632 6.648730145254275 13.192064861748555 0 0 0
222 0 1 0.0 1.6676700868663767 8.262577892160497 14.89672588218583 0 0 0
223 0 1 0.0 3.3339850805263005 6.605871448510075 13.198343449914498 0 0 0
224 0 1 0.0 4.902256127362245 8.265665692699748 14.948236876375068 0 0 0
231 0 1 0.0 0.004462322747698344 9.93818556209505 13.154084822008036 0 0 0
233 0 1 0.0 3.29623119165358 9.939919670342896 13.206321462286992 0 0 0
176 0 1 0.0 8.262268840585994 8.268684415197415 11.536846204883878 0 0 0
225 0 1 0.0 6.613699395229555 6.618755799675721 13.186743021463474 0 0 0
226 0 1 0.0 8.309593079620493 8.269965832673149 14.985095118929088 0 0 0
227 0 1 0.0 9.91169390027451 6.618873795571611 13.1800654438607 0 0 0
235 0 1 0.0 6.610975232621477 9.921824361132195 13.200274316392422 0 0 0
237 0 1 0.0 9.925722342235826 9.92153235963159 13.176807546851638 0 0 0
178 0 1 0.0 11.576783404321485 8.267622086678895 11.54552912460004 0 0 0
180 0 1 0.0 14.873440093577058 8.267136086730801 11.569543373255852 0 0 0
228 0 1 0.0 11.585650813834699 8.263553429234111 14.991580639761509 0 0 0
229 0 1 0.0 13.198357306099188 6.62272123945816 13.19660052898334 0 0 0
230 0 1 0.0 14.886103567687755 8.256527491276595 14.9918651730046 0 0 0
239 0 1 0.0 13.213265103946854 9.942571878066214 13.1957225842504 0 0 0
182 0 1 0.0 1.650849127963352 11.566437886026566 11.567496803681784 0 0 0
184 0 1 0.0 4.954873305937673 11.57747043658584 11.555054951400633 0 0 0
192 0 1 0.0 1.6480828722285024 14.877951732585291 11.533104926001359 0 0 0
194 0 1 0.0 4.971168553286292 14.87006515032011 11.542325250430821 0 0 0
232 0 1 0.0 1.6086045257876955 11.67758665808026 14.9306016307473 0 0 0
234 0 1 0.0 5.027496868338931 11.564238131144059 14.863499825198911 0 0 0
241 0 1 0.0 16.458529947217777 13.180615712365352 13.143285843356027 -1 0 0
242 0 1 0.0 1.5008362601565701 15.17179488630241 13.818733055267346 0 0 0
243 0 1 0.0 3.3454991913020193 13.234774740169945 13.18421243592621 0 0 0
244 0 1 0.0 4.99068344414872 14.881531103075385 14.786611343189746 0 0 0
186 0 1 0.0 8.26756071800017 11.570088005621496 11.530850365445698 0 0 0
196 0 1 0.0 8.269245689305789 14.871050727062554 11.562249964577974 0 0 0
236 0 1 0.0 8.243794811806266 11.532093912632936 14.975069638071773 0 0 0
245 0 1 0.0 6.617198980579818 13.213643806733698 13.176146198865817 0 0 0
246 0 1 0.0 8.28741606321372 14.94521553584918 14.762105223582022 0 0 0
247 0 1 0.0 9.928131128678068 13.206657373231813 13.179465964435272 0 0 0
188 0 1 0.0 11.576941262682212 11.578210402055964 11.57148188532261 0 0 0
190 0 1 0.0 14.86969449569512 11.579881757335247 11.573953027364652 0 0 0
198 0 1 0.0 11.578015525768457 14.87202024358959 11.57326966493243 0 0 0
200 0 1 0.0 14.86523539637495 14.860127129507894 11.580572575108903 0 0 0
238 0 1 0.0 11.559385510169351 11.57846768885766 14.936694047876466 0 0 0
240 0 1 0.0 14.94451581831229 11.624071412918509 14.859696225218727 0 0 0
248 0 1 0.0 11.640988985161696 14.894215472972833 14.747110200038836 0 0 0
249 0 1 0.0 13.234350311203713 13.214622438961312 13.18382738621898 0 0 0
250 0 1 0.0 14.986098236002727 14.894971689953003 14.792225004732966 0 0 0
251 0 1 0.0 0.24798604751104728 0.033655049070141274 17.068756946141797 0 0 0
252 0 1 0.0 1.8168210361643438 2.2864470457301658 17.696593376200482 0 0 0
253 0 1 0.0 3.414066953970091 0.029189061071171807 16.359062004678037 0 0 0
254 0 1 0.0 4.95297126337326 1.8970849746821352 18.09216513624277 0 0 0
261 0 1 0.0 0.008987965347583641 3.659381972653519 16.02648426771053 0 0 0
262 0 1 0.0 1.6893749432987926 4.714151515677011 18.196036108919525 0 0 0
263 0 1 0.0 3.421094888796515 3.48594280174079 16.272100665972957 0 0 0
264 0 1 0.0 4.507294260868766 4.735729595033346 18.77674823666346 0 0 0
255 0 1 0.0 6.491236007097322 0.0408644881162985 16.260509169358087 0 0 0
256 0 1 0.0 7.88132863155857 1.5235452984871585 18.67959375388681 0 0 0
257 0 1 0.0 9.877083596693101 0.11374578793313309 16.53200136993348 0 0 0
265 0 1 0.0 6.658447343872921 3.2054551179448376 16.36692989437364 0 0 0
266 0 1 0.0 7.990111439871753 4.657205349934058 18.55070809036638 0 0 0
267 0 1 0.0 9.895787017822467 3.237525291165158 16.195569594596165 0 0 0
258 0 1 0.0 11.267913703240438 1.9173214509308392 18.02949065235334 0 0 0
259 0 1 0.0 12.987920095596621 0.1538011122317164 16.445805723022442 0 0 0
260 0 1 0.0 15.146290181007005 2.0375302337956502 17.40093799236029 0 0 0
268 0 1 0.0 11.526609429448495 4.396012771117136 17.95222282394894 0 0 0
269 0 1 0.0 13.028882726392844 3.3499588803625273 16.172579142130225 0 0 0
270 0 1 0.0 15.117267182953539 5.029492357997371 18.155583485245053 0 0 0
271 0 1 0.0 0.08905815596180025 6.601606309504754 16.621360585337868 0 0 0
272 0 1 0.0 1.7874816627969854 8.066803734026088 17.86815637836442 0 0 0
273 0 1 0.0 3.2672024615565767 6.570923434895855 16.354630006539487 0 0 0
274 0 1 0.0 4.76390115833513 7.923503161885433 18.082201534883694 0 0 0
281 0 1 0.0 0.09626860938308246 9.780891999136095 16.4330465593429 0 0 0
283 0 1 0.0 3.251297723313488 9.752994726708923 16.292819413121805 0 0 0
275 0 1 0.0 6.634647840924134 6.598568143284784 16.40939752998937 0 0 0
276 0 1 0.0 8.028776084607037 7.984578484513511 18.53926061893749 0 0 0
277 0 1 0.0 9.926670826677004 6.6042140529486755 16.393457085080723 0 0 0
285 0 1 0.0 6.577391651146779 9.912383895242433 16.447286172328027 0 0 0
287 0 1 0.0 9.883089075466977 9.84585454912634 16.37573601719549 0 0 0
278 0 1 0.0 11.225962252818764 8.146080384747194 18.13199587654202 0 0 0
279 0 1 0.0 13.13523360070457 6.5671549221536365 16.40985742290106 0 0 0
280 0 1 0.0 14.86644161783215 7.985733705420013 17.819782253800227 0 0 0
289 0 1 0.0 13.209595923356646 9.855683455784828 16.552110653185437 0 0 0
282 0 1 0.0 1.993407103079218 11.024876425396917 18.051725032415423 0 0 0
284 0 1 0.0 4.999453806919887 11.578998352353478 18.80531334547271 0 0 0
291 0 1 0.0 16.414205972077355 13.089702707546772 17.141884398863283 -1 0 0
292 0 1 0.0 1.6974900635790753 14.43047572266715 16.422405959223195 0 0 0
293 0 1 0.0 4.046213706316782 12.392277096323209 16.58434207437318 0 0 0
294 0 1 0.0 5.051894893875795 14.480414959664262 17.85232941504685 0 0 0
286 0 1 0.0 7.8753179124462624 11.22738410860681 18.649817672600314 0 0 0
295 0 1 0.0 6.576342177345831 13.123247725147836 16.3633381664998 0 0 0
296 0 1 0.0 7.924882059521322 14.971603029158846 17.561293415515653 0 0 0
297 0 1 0.0 9.73319845321214 13.101727100369006 16.14370259786978 0 0 0
288 0 1 0.0 11.621292061291246 11.337875228104556 17.617063930037574 0 0 0
290 0 1 0.0 14.98028264280564 11.377758893302317 17.927552662121755 0 0 0
298 0 1 0.0 11.357818817500686 14.903597282927485 17.30576196497952 0 0 0
299 0 1 0.0 13.382656900880685 12.893239824601563 16.33247302378844 0 0 0
300 0 1 0.0 14.945413496520374 15.129855979304356 17.550202632376973 0 0 0
302 1 2 0.0 0.47998131133626504 0.29064933672640564 19.864866301982936 0 0 0
303 2 2 0.0 2.8494020048331326 0.5809470764144543 20.57646481667322 0 0 0
313 7 2 0.0 0.7111398146659216 3.6013843232922857 20.626931703517688 0 0 0
315 8 2 0.0 2.632370421511599 2.5810423670138536 20.48410236862151 0 0 0
316 8 2 0.0 3.7400654156399415 3.049790514821468 20.59754867157122 0 0 0
374 37 2 0.0 0.03011206781515943 0.7246486327070395 23.27371688522254 0 0 0
376 38 2 0.0 3.4634930204082655 0.43909905029663115 23.706166462063976 0 0 0
377 39 2 0.0 6.062167779276201 0.8867280374800769 24.37966579040803 0 0 0
386 43 2 0.0 0.7969860220879328 2.9333466650561646 24.800228459701714 0 0 0
387 44 2 0.0 3.2141273116445004 2.789925883503742 23.864287576592503 0 0 0
388 44 2 0.0 3.1845486909278127 3.9969074676704057 23.913631381879206 0 0 0
389 45 2 0.0 5.511416513480243 3.177068139929823 23.955444729610633 0 0 0
397 49 2 0.0 0.40679863542900274 5.276984627508785 24.068246860333648 0 0 0
306 3 2 0.0 6.096927459189958 0.8384290685137763 20.909207351092245 0 0 0
307 4 2 0.0 8.393678031792762 1.044622076557917 21.27708086504492 0 0 0
317 9 2 0.0 6.122541349889451 3.3500457128503105 20.177889548543348 0 0 0
318 9 2 0.0 6.0668709303639705 3.5051203043799277 21.379261345154408 0 0 0
319 10 2 0.0 8.289538117519323 3.4613723505699965 20.89472324010646 0 0 0
320 10 2 0.0 9.384019431805068 2.983483538437173 20.74111550085902 0 0 0
380 40 2 0.0 9.37499755689253 0.3372221284536266 24.38496748211761 0 0 0
390 45 2 0.0 6.691178730045147 3.2211249862345914 24.237524558850836 0 0 0
391 46 2 0.0 8.953944002170152 3.324583903061668 23.33734228015529 0 0 0
392 46 2 0.0 9.161918393946431 3.197480025120285 24.52620783651368 0 0 0
403 52 2 0.0 9.077753786124193 5.600642353133687 24.307329055156647 0 0 0
310 5 2 0.0 12.372405079241485 0.18904420136193495 20.92271304216418 0 0 0
312 6 2 0.0 14.45658940829554 1.6739426406882312 20.45149747085297 0 0 0
314 7 2 0.0 0.44022761596594373 2.768153585173119 19.7781931154261 0 0 0
321 11 2 0.0 11.556403484214291 3.3920480302901717 20.286240200834964 0 0 0
322 11 2 0.0 11.459388275860825 2.638516388250418 21.22216882522895 0 0 0
323 12 2 0.0 14.056099828788248 4.067744095107213 21.099204044424976 0 0 0
324 12 2 0.0 14.302097284539261 4.009892244581981 19.947524868861723 0 0 0
326 13 2 0.0 0.8486220448180626 5.778690390755414 20.19852951973832 0 0 0
382 41 2 0.0 11.501481856175655 0.6471501967026984 24.128293886067105 0 0 0
384 42 2 0.0 14.431293919903414 1.1346757392015983 23.57162945815578 0 0 0
385 43 2 0.0 1.1623988079726058 2.731792316201253 23.70491752086022 0 0 0
393 47 2 0.0 11.445308425132541 3.8204149467246427 24.320273329266296 0 0 0
394 47 2 0.0 11.612185956753498 3.4833472748865657 23.170682825426148 0 0 0
395 48 2 0.0 14.772263171610424 3.626735218595615 24.197029821494567 0 0 0
396 48 2 0.0 13.655168400974299 4.0590396109417615 24.46188617062555 0 0 0
325 13 2 0.0 0.4340391264449273 6.864887286851195 19.82335747901723 0 0 0
327 14 2 0.0 3.856274372413501 5.458207717674142 21.476071949406922 0 0 0
328 14 2 0.0 3.236046683256837 6.322646910333427 20.90485613060267 0 0 0
338 19 2 0.0 0.7220641758224203 8.692828345399597 21.664428181868676 0 0 0
339 20 2 0.0 4.027211189194398 8.578608791251456 20.08545772812392 0 0 0
340 20 2 0.0 3.866441534104664 9.266988722745445 21.061529138116097 0 0 0
399 50 2 0.0 2.54931204026125 6.178938135229135 24.588468932565068 0 0 0
400 50 2 0.0 3.352219299208498 6.415768507874235 23.715730650010478 0 0 0
410 55 2 0.0 0.21357755100978046 9.732218038287114 23.747095963055237 0 0 0
411 56 2 0.0 3.4126788210498407 8.724814990624113 23.232513136197465 0 0 0
412 56 2 0.0 3.6193530078256924 8.71099528877467 24.41934133981961 0 0 0
329 15 2 0.0 6.386726137092643 6.212550497361788 21.328749298899915 0 0 0
330 15 2 0.0 5.920348418486009 6.1668977797437945 20.213162728478775 0 0 0
331 16 2 0.0 8.598572303475398 6.543445597045054 21.307212476497007 0 0 0
332 16 2 0.0 8.77975666543135 5.657001097420953 20.500727286458485 0 0 0
341 21 2 0.0 6.120130737336833 9.36174012953697 19.95852213607335 0 0 0
342 21 2 0.0 6.108650752364345 8.805258520925817 21.037082642158936 0 0 0
343 22 2 0.0 8.168247207005424 8.846140201533045 20.502614253836747 0 0 0
344 22 2 0.0 9.309008321631362 8.508490309346762 20.668273035217837 0 0 0
401 51 2 0.0 5.7394703181244155 6.5104111901253425 24.129118222883605 0 0 0
402 51 2 0.0 6.571851827375065 5.660008477179451 23.916237926363994 0 0 0
404 52 2 0.0 8.933998367236157 6.803491399683301 24.339931443916797 0 0 0
413 57 2 0.0 6.034951280463338 8.742864631862856 23.541317129097347 0 0 0
414 57 2 0.0 6.066017120402024 8.798713669139 24.75502526787164 0 0 0
415 58 2 0.0 8.438506212576685 9.142622045996692 24.620731057921017 0 0 0
416 58 2 0.0 9.060308577998732 9.120930245588179 23.58341753413337 0 0 0
333 17 2 0.0 10.932705758392256 6.041130200861799 21.046181689471478 0 0 0
334 17 2 0.0 11.364954613219137 6.063767230193826 19.918697565101855 0 0 0
335 18 2 0.0 14.051523088953696 6.276589560315097 20.72246302280679 0 0 0
336 18 2 0.0 15.144136892468927 6.028619719620084 21.05628255954563 0 0 0
337 19 2 0.0 1.3389942162447208 9.428591698917163 21.016717476787107 0 0 0
345 23 2 0.0 11.658189561464392 8.580796883114434 21.49651977804668 0 0 0
346 23 2 0.0 11.394819111526651 9.6510923723294 21.014349308954746 0 0 0
347 24 2 0.0 14.010151876619952 8.902887855558378 20.834177698726112 0 0 0
348 24 2 0.0 13.793672644886671 8.798123942024088 19.664902244211273 0 0 0
398 49 2 0.0 0.3386837594362159 6.4650850579812 24.347722885980485 0 0 0
405 53 2 0.0 11.793202463242162 6.130360991898646 23.235806302855547 0 0 0
406 53 2 0.0 11.333291338917707 6.135385098981348 24.35717571194792 0 0 0
407 54 2 0.0 14.298802717417015 6.15105782703772 23.452297971111896 0 0 0
408 54 2 0.0 14.41849692098941 6.015110604421815 24.656130458746805 0 0 0
409 55 2 0.0 0.7346717947856299 8.94683332031857 24.489064185336435 0 0 0
417 59 2 0.0 11.534357107399948 8.479469012489506 23.892291604849397 0 0 0
418 59 2 0.0 12.507551380365925 9.193060277684044 23.77698038022039 0 0 0
419 60 2 0.0 14.280710987832233 8.258066927494712 24.520684479753065 0 0 0
420 60 2 0.0 14.674582301115167 8.292307885588801 23.37188914948611 0 0 0
304 2 2 0.0 2.9538424427328174 0.9446606500069717 21.72427513974588 0 0 0
350 25 2 0.0 0.7416316444775662 11.691528923894941 20.478206617576692 0 0 0
351 26 2 0.0 3.3066573524071634 11.738289253898726 20.24265060139108 0 0 0
352 26 2 0.0 3.2339816087112414 11.746556791698541 21.452581513401498 0 0 0
362 31 2 0.0 1.5404963328247037 14.878439515542475 20.304907758310218 0 0 0
363 32 2 0.0 4.71643526710178 15.029925713915251 21.37921141557445 0 0 0
364 32 2 0.0 5.060025854706413 13.985336554097792 20.739196402282683 0 0 0
365 33 2 0.0 6.937961057113906 13.954788046208837 19.688486173535164 0 0 0
375 38 2 0.0 2.3827245424753767 16.423880000205084 23.72159900555205 0 -1 0
422 61 2 0.0 0.8499384964534542 11.90638888251035 23.170553437916674 0 0 0
423 62 2 0.0 3.259583405937933 11.171778393445406 24.254800279539502 0 0 0
424 62 2 0.0 3.619133249003977 12.002434840584419 25.05463097788542 0 0 0
434 67 2 0.0 0.9381729809763324 14.488957010585203 23.441183283346863 0 0 0
435 68 2 0.0 3.3418680492890043 13.917858218307847 23.22704581438857 0 0 0
436 68 2 0.0 3.4737341540876288 14.586656845403454 24.239284331114753 0 0 0
305 3 2 0.0 5.201633247920594 0.9202633848411309 20.13876586514263 0 0 0
308 4 2 0.0 8.986095143905338 0.5828953946896683 20.326458222980104 0 0 0
353 27 2 0.0 6.207024754989951 11.79433426093761 20.5837131668653 0 0 0
354 27 2 0.0 5.713229975969277 11.845561631590499 21.684877119718657 0 0 0