Oxygen
2 atoms
1 bonds
1 atom types
 -0.557600   0.658400 xlo xhi
 -0.500000  -0.500000 ylo yhi
 -0.500000  -0.500000 zlo zhi
  0.000000   0.000000   0.000000 xy xz yz


Masses

1   15.999



Atoms

1 1  -0.057600   0.000000   0.000000
2 1   1.158400   0.000000   0.000000


Bonds

1       1       1       2
