LAMMPS data file generated by Avogadro
9000 atoms
1 bonds
1 atom types
  0.000000  99.039001 xlo xhi
  0.000000  99.039001 ylo yhi
  0.000000  16.506500 zlo zhi
 -0.000004  -0.000001  -0.000001 xy xz yz


Masses

1   180.948



Atoms

1          1   0.000000   0.000000   0.000000
2          1   1.650653   1.650653   1.650650
3          1  -0.000000  -0.000000   3.301300
4          1   1.650653   1.650653   4.951950
5          1  -0.000000  -0.000000   6.602600
6          1   1.650653   1.650653   8.253250
7          1  -0.000000  -0.000000   9.903901
8          1   1.650653   1.650653  11.554550
9          1  -0.000001  -0.000001  13.205200
10         1   1.650653   1.650653  14.855850
11         1  -0.000000   3.301297   0.000000
12         1   1.650653   4.951950   1.650650
13         1  -0.000000   3.301297   3.301300
14         1   1.650653   4.951950   4.951950
15         1  -0.000000   3.301297   6.602600
16         1   1.650653   4.951950   8.253250
17         1  -0.000001   3.301296   9.903901
18         1   1.650653   4.951950  11.554550
19         1  -0.000001   3.301296  13.205200
20         1   1.650652   4.951949  14.855850
21         1  -0.000000   6.602603   0.000000
22         1   1.650653   8.253247   1.650650
23         1  -0.000000   6.602603   3.301300
24         1   1.650653   8.253246   4.951950
25         1  -0.000001   6.602603   6.602600
26         1   1.650653   8.253246   8.253250
27         1  -0.000001   6.602603   9.903901
28         1   1.650652   8.253246  11.554550
29         1  -0.000001   6.602603  13.205200
30         1   1.650652   8.253246  14.855850
31         1  -0.000000   9.903900   0.000000
32         1   1.650653  11.554583   1.650650
33         1  -0.000001   9.903900   3.301300
34         1   1.650653  11.554583   4.951950
35         1  -0.000001   9.903900   6.602600
36         1   1.650652  11.554583   8.253250
37         1  -0.000001   9.903900   9.903901
38         1   1.650652  11.554583  11.554550
39         1  -0.000001   9.903900  13.205200
40         1   1.650652  11.554583  14.855850
41         1  -0.000001  13.205167   0.000000
42         1   1.650653  14.855851   1.650650
43         1  -0.000001  13.205167   3.301300
44         1   1.650652  14.855851   4.951950
45         1  -0.000001  13.205167   6.602600
46         1   1.650652  14.855850   8.253250
47         1  -0.000001  13.205167   9.903901
48         1   1.650652  14.855850  11.554550
49         1  -0.000001  13.205166  13.205200
50         1   1.650652  14.855850  14.855850
51         1  -0.000001  16.506533   0.000000
52         1   1.650652  18.157117   1.650650
53         1  -0.000001  16.506533   3.301300
54         1   1.650652  18.157117   4.951950
55         1  -0.000001  16.506533   6.602600
56         1   1.650652  18.157116   8.253250
57         1  -0.000001  16.506533   9.903901
58         1   1.650652  18.157116  11.554550
59         1  -0.000001  16.506533  13.205200
60         1   1.650652  18.157116  14.855850
61         1  -0.000001  19.807801   0.000000
62         1   1.650652  21.458483   1.650650
63         1  -0.000001  19.807800   3.301300
64         1   1.650652  21.458483   4.951950
65         1  -0.000001  19.807800   6.602600
66         1   1.650652  21.458483   8.253250
67         1  -0.000001  19.807800   9.903901
68         1   1.650652  21.458482  11.554550
69         1  -0.000001  19.807800  13.205200
70         1   1.650652  21.458482  14.855850
71         1  -0.000001  23.109068   0.000000
72         1   1.650652  24.759750   1.650650
73         1  -0.000001  23.109068   3.301300
74         1   1.650652  24.759750   4.951950
75         1  -0.000001  23.109068   6.602600
76         1   1.650652  24.759750   8.253250
77         1  -0.000001  23.109068   9.903901
78         1   1.650652  24.759750  11.554550
79         1  -0.000002  23.109067  13.205200
80         1   1.650652  24.759750  14.855850
81         1  -0.000001  26.410434   0.000000
82         1   1.650652  28.061018   1.650650
83         1  -0.000001  26.410434   3.301300
84         1   1.650652  28.061018   4.951950
85         1  -0.000001  26.410434   6.602600
86         1   1.650652  28.061017   8.253250
87         1  -0.000002  26.410434   9.903901
88         1   1.650652  28.061017  11.554550
89         1  -0.000002  26.410434  13.205200
90         1   1.650651  28.061017  14.855850
91         1  -0.000001  29.711702   0.000000
92         1   1.650652  31.362382   1.650650
93         1  -0.000001  29.711701   3.301300
94         1   1.650652  31.362382   4.951950
95         1  -0.000002  29.711701   6.602600
96         1   1.650652  31.362382   8.253250
97         1  -0.000002  29.711701   9.903901
98         1   1.650651  31.362382  11.554550
99         1  -0.000002  29.711701  13.205200
100        1   1.650651  31.362382  14.855850
101        1  -0.000001  33.012966   0.000000
102        1   1.650652  34.663650   1.650650
103        1  -0.000002  33.012966   3.301300
104        1   1.650652  34.663650   4.951950
105        1  -0.000002  33.012966   6.602600
106        1   1.650651  34.663650   8.253250
107        1  -0.000002  33.012966   9.903901
108        1   1.650651  34.663649  11.554550
109        1  -0.000002  33.012965  13.205200
110        1   1.650651  34.663649  14.855850
111        1  -0.000002  36.314334   0.000000
112        1   1.650652  37.964917   1.650650
113        1  -0.000002  36.314334   3.301300
114        1   1.650651  37.964917   4.951950
115        1  -0.000002  36.314334   6.602600
116        1   1.650651  37.964917   8.253250
117        1  -0.000002  36.314333   9.903901
118        1   1.650651  37.964917  11.554550
119        1  -0.000002  36.314333  13.205200
120        1   1.650651  37.964917  14.855850
121        1  -0.000002  39.615601   0.000000
122        1   1.650651  41.266285   1.650650
123        1  -0.000002  39.615601   3.301300
124        1   1.650651  41.266285   4.951950
125        1  -0.000002  39.615601   6.602600
126        1   1.650651  41.266285   8.253250
127        1  -0.000002  39.615601   9.903901
128        1   1.650651  41.266285  11.554550
129        1  -0.000002  39.615601  13.205200
130        1   1.650651  41.266284  14.855850
131        1  -0.000002  42.916869   0.000000
132        1   1.650651  44.567549   1.650650
133        1  -0.000002  42.916868   3.301300
134        1   1.650651  44.567549   4.951950
135        1  -0.000002  42.916868   6.602600
136        1   1.650651  44.567549   8.253250
137        1  -0.000002  42.916868   9.903901
138        1   1.650651  44.567549  11.554550
139        1  -0.000002  42.916868  13.205200
140        1   1.650651  44.567549  14.855850
141        1  -0.000002  46.218233   0.000000
142        1   1.650651  47.868817   1.650650
143        1  -0.000002  46.218233   3.301300
144        1   1.650651  47.868817   4.951950
145        1  -0.000002  46.218233   6.602600
146        1   1.650651  47.868817   8.253250
147        1  -0.000002  46.218233   9.903901
148        1   1.650651  47.868816  11.554550
149        1  -0.000003  46.218233  13.205200
150        1   1.650651  47.868816  14.855850
151        1  -0.000002  49.519501   0.000000
152        1   1.650651  51.170185   1.650650
153        1  -0.000002  49.519501   3.301300
154        1   1.650651  51.170184   4.951950
155        1  -0.000002  49.519500   6.602600
156        1   1.650651  51.170184   8.253250
157        1  -0.000003  49.519500   9.903901
158        1   1.650651  51.170184  11.554550
159        1  -0.000003  49.519500  13.205200
160        1   1.650650  51.170184  14.855850
161        1  -0.000002  52.820768   0.000000
162        1   1.650651  54.471452   1.650650
163        1  -0.000002  52.820768   3.301300
164        1   1.650651  54.471452   4.951950
165        1  -0.000003  52.820768   6.602600
166        1   1.650651  54.471452   8.253250
167        1  -0.000003  52.820768   9.903901
168        1   1.650650  54.471451  11.554550
169        1  -0.000003  52.820768  13.205200
170        1   1.650650  54.471451  14.855850
171        1  -0.000002  56.122136   0.000000
172        1   1.650651  57.772719   1.650650
173        1  -0.000003  56.122136   3.301300
174        1   1.650651  57.772719   4.951950
175        1  -0.000003  56.122136   6.602600
176        1   1.650650  57.772719   8.253250
177        1  -0.000003  56.122135   9.903901
178        1   1.650650  57.772719  11.554550
179        1  -0.000003  56.122135  13.205200
180        1   1.650650  57.772719  14.855850
181        1  -0.000003  59.423403   0.000000
182        1   1.650651  61.074081   1.650650
183        1  -0.000003  59.423403   3.301300
184        1   1.650650  61.074081   4.951950
185        1  -0.000003  59.423403   6.602600
186        1   1.650650  61.074081   8.253250
187        1  -0.000003  59.423403   9.903901
188        1   1.650650  61.074081  11.554550
189        1  -0.000003  59.423403  13.205200
190        1   1.650650  61.074081  14.855850
191        1  -0.000003  62.724671   0.000000
192        1   1.650650  64.375349   1.650650
193        1  -0.000003  62.724670   3.301300
194        1   1.650650  64.375348   4.951950
195        1  -0.000003  62.724670   6.602600
196        1   1.650650  64.375348   8.253250
197        1  -0.000003  62.724670   9.903901
198        1   1.650650  64.375348  11.554550
199        1  -0.000003  62.724670  13.205200
200        1   1.650650  64.375348  14.855850
201        1  -0.000003  66.026032   0.000000
202        1   1.650650  67.676616   1.650650
203        1  -0.000003  66.026032   3.301300
204        1   1.650650  67.676616   4.951950
205        1  -0.000003  66.026032   6.602600
206        1   1.650650  67.676616   8.253250
207        1  -0.000003  66.026032   9.903901
208        1   1.650650  67.676615  11.554550
209        1  -0.000003  66.026032  13.205200
210        1   1.650650  67.676615  14.855850
211        1  -0.000003  69.327300   0.000000
212        1   1.650650  70.977984   1.650650
213        1  -0.000003  69.327300   3.301300
214        1   1.650650  70.977983   4.951950
215        1  -0.000003  69.327300   6.602600
216        1   1.650650  70.977983   8.253250
217        1  -0.000003  69.327299   9.903901
218        1   1.650650  70.977983  11.554550
219        1  -0.000004  69.327299  13.205200
220        1   1.650649  70.977983  14.855850
221        1  -0.000003  72.628567   0.000000
222        1   1.650650  74.279251   1.650650
223        1  -0.000003  72.628567   3.301300
224        1   1.650650  74.279251   4.951950
225        1  -0.000003  72.628567   6.602600
226        1   1.650650  74.279251   8.253250
227        1  -0.000004  72.628567   9.903901
228        1   1.650649  74.279251  11.554550
229        1  -0.000004  72.628567  13.205200
230        1   1.650649  74.279250  14.855850
231        1  -0.000003  75.929935   0.000000
232        1   1.650650  77.580518   1.650650
233        1  -0.000003  75.929935   3.301300
234        1   1.650650  77.580518   4.951950
235        1  -0.000004  75.929935   6.602600
236        1   1.650649  77.580518   8.253250
237        1  -0.000004  75.929935   9.903901
238        1   1.650649  77.580518  11.554550
239        1  -0.000004  75.929934  13.205200
240        1   1.650649  77.580518  14.855850
241        1  -0.000003  79.231202   0.000000
242        1   1.650650  80.881886   1.650650
243        1  -0.000004  79.231202   3.301300
244        1   1.650649  80.881886   4.951950
245        1  -0.000004  79.231202   6.602600
246        1   1.650649  80.881886   8.253250
247        1  -0.000004  79.231202   9.903901
248        1   1.650649  80.881886  11.554550
249        1  -0.000004  79.231202  13.205200
250        1   1.650649  80.881886  14.855850
251        1  -0.000004  82.532470   0.000000
252        1   1.650649  84.183154   1.650650
253        1  -0.000004  82.532470   3.301300
254        1   1.650649  84.183153   4.951950
255        1  -0.000004  82.532469   6.602600
256        1   1.650649  84.183153   8.253250
257        1  -0.000004  82.532469   9.903901
258        1   1.650649  84.183153  11.554550
259        1  -0.000004  82.532469  13.205200
260        1   1.650649  84.183153  14.855850
261        1  -0.000004  85.833832   0.000000
262        1   1.650649  87.484421   1.650650
263        1  -0.000004  85.833831   3.301300
264        1   1.650649  87.484421   4.951950
265        1  -0.000004  85.833831   6.602600
266        1   1.650649  87.484421   8.253250
267        1  -0.000004  85.833831   9.903901
268        1   1.650649  87.484420  11.554550
269        1  -0.000004  85.833831  13.205200
270        1   1.650649  87.484420  14.855850
271        1  -0.000004  89.135099   0.000000
272        1   1.650649  90.785783   1.650650
273        1  -0.000004  89.135099   3.301300
274        1   1.650649  90.785783   4.951950
275        1  -0.000004  89.135099   6.602600
276        1   1.650649  90.785782   8.253250
277        1  -0.000004  89.135099   9.903901
278        1   1.650649  90.785782  11.554550
279        1  -0.000004  89.135098  13.205200
280        1   1.650649  90.785782  14.855850
281        1  -0.000004  92.436366   0.000000
282        1   1.650649  94.087050   1.650650
283        1  -0.000004  92.436366   3.301300
284        1   1.650649  94.087050   4.951950
285        1  -0.000004  92.436366   6.602600
286        1   1.650649  94.087050   8.253250
287        1  -0.000004  92.436366   9.903901
288        1   1.650649  94.087050  11.554550
289        1  -0.000005  92.436366  13.205200
290        1   1.650648  94.087050  14.855850
291        1  -0.000004  95.737734   0.000000
292        1   1.650649  97.388318   1.650650
293        1  -0.000004  95.737734   3.301300
294        1   1.650649  97.388317   4.951950
295        1  -0.000004  95.737734   6.602600
296        1   1.650649  97.388317   8.253250
297        1  -0.000005  95.737734   9.903901
298        1   1.650648  97.388317  11.554550
299        1  -0.000005  95.737734  13.205200
300        1   1.650648  97.388317  14.855850
301        1   3.301297   0.000000   0.000000
302        1   4.951950   1.650653   1.650650
303        1   3.301297  -0.000000   3.301300
304        1   4.951950   1.650653   4.951950
305        1   3.301297  -0.000000   6.602600
306        1   4.951950   1.650653   8.253250
307        1   3.301296  -0.000000   9.903901
308        1   4.951950   1.650653  11.554550
309        1   3.301296  -0.000001  13.205200
310        1   4.951949   1.650653  14.855850
311        1   3.301297   3.301297   0.000000
312        1   4.951950   4.951950   1.650650
313        1   3.301297   3.301297   3.301300
314        1   4.951950   4.951950   4.951950
315        1   3.301296   3.301297   6.602600
316        1   4.951950   4.951950   8.253250
317        1   3.301296   3.301296   9.903901
318        1   4.951949   4.951950  11.554550
319        1   3.301296   3.301296  13.205200
320        1   4.951949   4.951949  14.855850
321        1   3.301297   6.602603   0.000000
322        1   4.951950   8.253247   1.650650
323        1   3.301296   6.602603   3.301300
324        1   4.951950   8.253246   4.951950
325        1   3.301296   6.602603   6.602600
326        1   4.951949   8.253246   8.253250
327        1   3.301296   6.602603   9.903901
328        1   4.951949   8.253246  11.554550
329        1   3.301296   6.602603  13.205200
330        1   4.951949   8.253246  14.855850
331        1   3.301296   9.903900   0.000000
332        1   4.951950  11.554583   1.650650
333        1   3.301296   9.903900   3.301300
334        1   4.951949  11.554583   4.951950
335        1   3.301296   9.903900   6.602600
336        1   4.951949  11.554583   8.253250
337        1   3.301296   9.903900   9.903901
338        1   4.951949  11.554583  11.554550
339        1   3.301296   9.903900  13.205200
340        1   4.951949  11.554583  14.855850
341        1   3.301296  13.205167   0.000000
342        1   4.951949  14.855851   1.650650
343        1   3.301296  13.205167   3.301300
344        1   4.951949  14.855851   4.951950
345        1   3.301296  13.205167   6.602600
346        1   4.951949  14.855850   8.253250
347        1   3.301296  13.205167   9.903901
348        1   4.951949  14.855850  11.554550
349        1   3.301296  13.205166  13.205200
350        1   4.951949  14.855850  14.855850
351        1   3.301296  16.506533   0.000000
352        1   4.951949  18.157117   1.650650
353        1   3.301296  16.506533   3.301300
354        1   4.951949  18.157117   4.951950
355        1   3.301296  16.506533   6.602600
356        1   4.951949  18.157116   8.253250
357        1   3.301296  16.506533   9.903901
358        1   4.951949  18.157116  11.554550
359        1   3.301296  16.506533  13.205200
360        1   4.951949  18.157116  14.855850
361        1   3.301296  19.807801   0.000000
362        1   4.951949  21.458483   1.650650
363        1   3.301296  19.807800   3.301300
364        1   4.951949  21.458483   4.951950
365        1   3.301296  19.807800   6.602600
366        1   4.951949  21.458483   8.253250
367        1   3.301296  19.807800   9.903901
368        1   4.951949  21.458482  11.554550
369        1   3.301295  19.807800  13.205200
370        1   4.951949  21.458482  14.855850
371        1   3.301296  23.109068   0.000000
372        1   4.951949  24.759750   1.650650
373        1   3.301296  23.109068   3.301300
374        1   4.951949  24.759750   4.951950
375        1   3.301296  23.109068   6.602600
376        1   4.951949  24.759750   8.253250
377        1   3.301295  23.109068   9.903901
378        1   4.951949  24.759750  11.554550
379        1   3.301295  23.109067  13.205200
380        1   4.951948  24.759750  14.855850
381        1   3.301296  26.410434   0.000000
382        1   4.951949  28.061018   1.650650
383        1   3.301296  26.410434   3.301300
384        1   4.951949  28.061018   4.951950
385        1   3.301295  26.410434   6.602600
386        1   4.951949  28.061017   8.253250
387        1   3.301295  26.410434   9.903901
388        1   4.951948  28.061017  11.554550
389        1   3.301295  26.410434  13.205200
390        1   4.951948  28.061017  14.855850
391        1   3.301296  29.711702   0.000000
392        1   4.951949  31.362382   1.650650
393        1   3.301295  29.711701   3.301300
394        1   4.951949  31.362382   4.951950
395        1   3.301295  29.711701   6.602600
396        1   4.951948  31.362382   8.253250
397        1   3.301295  29.711701   9.903901
398        1   4.951948  31.362382  11.554550
399        1   3.301295  29.711701  13.205200
400        1   4.951948  31.362382  14.855850
401        1   3.301295  33.012966   0.000000
402        1   4.951949  34.663650   1.650650
403        1   3.301295  33.012966   3.301300
404        1   4.951948  34.663650   4.951950
405        1   3.301295  33.012966   6.602600
406        1   4.951948  34.663650   8.253250
407        1   3.301295  33.012966   9.903901
408        1   4.951948  34.663649  11.554550
409        1   3.301295  33.012965  13.205200
410        1   4.951948  34.663649  14.855850
411        1   3.301295  36.314334   0.000000
412        1   4.951948  37.964917   1.650650
413        1   3.301295  36.314334   3.301300
414        1   4.951948  37.964917   4.951950
415        1   3.301295  36.314334   6.602600
416        1   4.951948  37.964917   8.253250
417        1   3.301295  36.314333   9.903901
418        1   4.951948  37.964917  11.554550
419        1   3.301295  36.314333  13.205200
420        1   4.951948  37.964917  14.855850
421        1   3.301295  39.615601   0.000000
422        1   4.951948  41.266285   1.650650
423        1   3.301295  39.615601   3.301300
424        1   4.951948  41.266285   4.951950
425        1   3.301295  39.615601   6.602600
426        1   4.951948  41.266285   8.253250
427        1   3.301295  39.615601   9.903901
428        1   4.951948  41.266285  11.554550
429        1   3.301295  39.615601  13.205200
430        1   4.951948  41.266284  14.855850
431        1   3.301295  42.916869   0.000000
432        1   4.951948  44.567549   1.650650
433        1   3.301295  42.916868   3.301300
434        1   4.951948  44.567549   4.951950
435        1   3.301295  42.916868   6.602600
436        1   4.951948  44.567549   8.253250
437        1   3.301295  42.916868   9.903901
438        1   4.951948  44.567549  11.554550
439        1   3.301294  42.916868  13.205200
440        1   4.951948  44.567549  14.855850
441        1   3.301295  46.218233   0.000000
442        1   4.951948  47.868817   1.650650
443        1   3.301295  46.218233   3.301300
444        1   4.951948  47.868817   4.951950
445        1   3.301295  46.218233   6.602600
446        1   4.951948  47.868817   8.253250
447        1   3.301294  46.218233   9.903901
448        1   4.951948  47.868816  11.554550
449        1   3.301294  46.218233  13.205200
450        1   4.951947  47.868816  14.855850
451        1   3.301295  49.519501   0.000000
452        1   4.951948  51.170185   1.650650
453        1   3.301295  49.519501   3.301300
454        1   4.951948  51.170184   4.951950
455        1   3.301294  49.519500   6.602600
456        1   4.951948  51.170184   8.253250
457        1   3.301294  49.519500   9.903901
458        1   4.951947  51.170184  11.554550
459        1   3.301294  49.519500  13.205200
460        1   4.951947  51.170184  14.855850
461        1   3.301295  52.820768   0.000000
462        1   4.951948  54.471452   1.650650
463        1   3.301294  52.820768   3.301300
464        1   4.951948  54.471452   4.951950
465        1   3.301294  52.820768   6.602600
466        1   4.951947  54.471452   8.253250
467        1   3.301294  52.820768   9.903901
468        1   4.951947  54.471451  11.554550
469        1   3.301294  52.820768  13.205200
470        1   4.951947  54.471451  14.855850
471        1   3.301294  56.122136   0.000000
472        1   4.951948  57.772719   1.650650
473        1   3.301294  56.122136   3.301300
474        1   4.951947  57.772719   4.951950
475        1   3.301294  56.122136   6.602600
476        1   4.951947  57.772719   8.253250
477        1   3.301294  56.122135   9.903901
478        1   4.951947  57.772719  11.554550
479        1   3.301294  56.122135  13.205200
480        1   4.951947  57.772719  14.855850
481        1   3.301294  59.423403   0.000000
482        1   4.951947  61.074081   1.650650
483        1   3.301294  59.423403   3.301300
484        1   4.951947  61.074081   4.951950
485        1   3.301294  59.423403   6.602600
486        1   4.951947  61.074081   8.253250
487        1   3.301294  59.423403   9.903901
488        1   4.951947  61.074081  11.554550
489        1   3.301294  59.423403  13.205200
490        1   4.951947  61.074081  14.855850
491        1   3.301294  62.724671   0.000000
492        1   4.951947  64.375349   1.650650
493        1   3.301294  62.724670   3.301300
494        1   4.951947  64.375348   4.951950
495        1   3.301294  62.724670   6.602600
496        1   4.951947  64.375348   8.253250
497        1   3.301294  62.724670   9.903901
498        1   4.951947  64.375348  11.554550
499        1   3.301294  62.724670  13.205200
500        1   4.951947  64.375348  14.855850
501        1   3.301294  66.026032   0.000000
502        1   4.951947  67.676616   1.650650
503        1   3.301294  66.026032   3.301300
504        1   4.951947  67.676616   4.951950
505        1   3.301294  66.026032   6.602600
506        1   4.951947  67.676616   8.253250
507        1   3.301294  66.026032   9.903901
508        1   4.951947  67.676615  11.554550
509        1   3.301293  66.026032  13.205200
510        1   4.951947  67.676615  14.855850
511        1   3.301294  69.327300   0.000000
512        1   4.951947  70.977984   1.650650
513        1   3.301294  69.327300   3.301300
514        1   4.951947  70.977983   4.951950
515        1   3.301294  69.327300   6.602600
516        1   4.951947  70.977983   8.253250
517        1   3.301293  69.327299   9.903901
518        1   4.951947  70.977983  11.554550
519        1   3.301293  69.327299  13.205200
520        1   4.951946  70.977983  14.855850
521        1   3.301294  72.628567   0.000000
522        1   4.951947  74.279251   1.650650
523        1   3.301294  72.628567   3.301300
524        1   4.951947  74.279251   4.951950
525        1   3.301293  72.628567   6.602600
526        1   4.951947  74.279251   8.253250
527        1   3.301293  72.628567   9.903901
528        1   4.951946  74.279251  11.554550
529        1   3.301293  72.628567  13.205200
530        1   4.951946  74.279250  14.855850
531        1   3.301294  75.929935   0.000000
532        1   4.951947  77.580518   1.650650
533        1   3.301293  75.929935   3.301300
534        1   4.951947  77.580518   4.951950
535        1   3.301293  75.929935   6.602600
536        1   4.951946  77.580518   8.253250
537        1   3.301293  75.929935   9.903901
538        1   4.951946  77.580518  11.554550
539        1   3.301293  75.929934  13.205200
540        1   4.951946  77.580518  14.855850
541        1   3.301293  79.231202   0.000000
542        1   4.951947  80.881886   1.650650
543        1   3.301293  79.231202   3.301300
544        1   4.951946  80.881886   4.951950
545        1   3.301293  79.231202   6.602600
546        1   4.951946  80.881886   8.253250
547        1   3.301293  79.231202   9.903901
548        1   4.951946  80.881886  11.554550
549        1   3.301293  79.231202  13.205200
550        1   4.951946  80.881886  14.855850
551        1   3.301293  82.532470   0.000000
552        1   4.951946  84.183154   1.650650
553        1   3.301293  82.532470   3.301300
554        1   4.951946  84.183153   4.951950
555        1   3.301293  82.532469   6.602600
556        1   4.951946  84.183153   8.253250
557        1   3.301293  82.532469   9.903901
558        1   4.951946  84.183153  11.554550
559        1   3.301293  82.532469  13.205200
560        1   4.951946  84.183153  14.855850
561        1   3.301293  85.833832   0.000000
562        1   4.951946  87.484421   1.650650
563        1   3.301293  85.833831   3.301300
564        1   4.951946  87.484421   4.951950
565        1   3.301293  85.833831   6.602600
566        1   4.951946  87.484421   8.253250
567        1   3.301293  85.833831   9.903901
568        1   4.951946  87.484420  11.554550
569        1   3.301293  85.833831  13.205200
570        1   4.951946  87.484420  14.855850
571        1   3.301293  89.135099   0.000000
572        1   4.951946  90.785783   1.650650
573        1   3.301293  89.135099   3.301300
574        1   4.951946  90.785783   4.951950
575        1   3.301293  89.135099   6.602600
576        1   4.951946  90.785782   8.253250
577        1   3.301293  89.135099   9.903901
578        1   4.951946  90.785782  11.554550
579        1   3.301292  89.135098  13.205200
580        1   4.951946  90.785782  14.855850
581        1   3.301293  92.436366   0.000000
582        1   4.951946  94.087050   1.650650
583        1   3.301293  92.436366   3.301300
584        1   4.951946  94.087050   4.951950
585        1   3.301293  92.436366   6.602600
586        1   4.951946  94.087050   8.253250
587        1   3.301292  92.436366   9.903901
588        1   4.951946  94.087050  11.554550
589        1   3.301292  92.436366  13.205200
590        1   4.951945  94.087050  14.855850
591        1   3.301293  95.737734   0.000000
592        1   4.951946  97.388318   1.650650
593        1   3.301293  95.737734   3.301300
594        1   4.951946  97.388317   4.951950
595        1   3.301292  95.737734   6.602600
596        1   4.951946  97.388317   8.253250
597        1   3.301292  95.737734   9.903901
598        1   4.951945  97.388317  11.554550
599        1   3.301292  95.737734  13.205200
600        1   4.951945  97.388317  14.855850
601        1   6.602603   0.000000   0.000000
602        1   8.253247   1.650653   1.650650
603        1   6.602603  -0.000000   3.301300
604        1   8.253246   1.650653   4.951950
605        1   6.602603  -0.000000   6.602600
606        1   8.253246   1.650653   8.253250
607        1   6.602603  -0.000000   9.903901
608        1   8.253246   1.650653  11.554550
609        1   6.602603  -0.000001  13.205200
610        1   8.253246   1.650653  14.855850
611        1   6.602603   3.301297   0.000000
612        1   8.253246   4.951950   1.650650
613        1   6.602603   3.301297   3.301300
614        1   8.253246   4.951950   4.951950
615        1   6.602603   3.301297   6.602600
616        1   8.253246   4.951950   8.253250
617        1   6.602603   3.301296   9.903901
618        1   8.253246   4.951950  11.554550
619        1   6.602603   3.301296  13.205200
620        1   8.253246   4.951949  14.855850
621        1   6.602603   6.602603   0.000000
622        1   8.253246   8.253247   1.650650
623        1   6.602603   6.602603   3.301300
624        1   8.253246   8.253246   4.951950
625        1   6.602603   6.602603   6.602600
626        1   8.253246   8.253246   8.253250
627        1   6.602603   6.602603   9.903901
628        1   8.253246   8.253246  11.554550
629        1   6.602603   6.602603  13.205200
630        1   8.253246   8.253246  14.855850
631        1   6.602603   9.903900   0.000000
632        1   8.253246  11.554583   1.650650
633        1   6.602603   9.903900   3.301300
634        1   8.253246  11.554583   4.951950
635        1   6.602603   9.903900   6.602600
636        1   8.253246  11.554583   8.253250
637        1   6.602603   9.903900   9.903901
638        1   8.253246  11.554583  11.554550
639        1   6.602602   9.903900  13.205200
640        1   8.253246  11.554583  14.855850
641        1   6.602603  13.205167   0.000000
642        1   8.253246  14.855851   1.650650
643        1   6.602603  13.205167   3.301300
644        1   8.253246  14.855851   4.951950
645        1   6.602603  13.205167   6.602600
646        1   8.253246  14.855850   8.253250
647        1   6.602602  13.205167   9.903901