ITEM: TIMESTEP
0
ITEM: NUMBER OF ATOMS
580
ITEM: BOX BOUNDS pp pp ff
0.0000000000000000e+00 2.3140599999999999e+01
0.0000000000000000e+00 2.3140599999999999e+01
0.0000000000000000e+00 5.0000000000000000e+01
ITEM: ATOMS id type x y z fx fy fz vx vy vz
1 1 1.47999e-20 2.12008e-19 3.5239e-05 0 0 0 3.4041e-17 1.48004e-16 0.0704716
2 1 1.6529 1.6529 1.65287 0 0 0 3.5521e-16 2.5207e-17 -0.0600226
3 1 3.3058 2.72572e-19 3.5239e-05 0 0 0 1.04066e-16 2.54822e-16 0.0704716
4 1 4.9587 1.6529 1.65287 0 0 0 1.20256e-16 -1.08043e-16 -0.0600226
15 1 2.04238e-19 3.3058 3.5239e-05 0 0 0 1.67245e-16 1.04459e-16 0.0704716
16 1 1.6529 4.9587 1.65287 0 0 0 2.24227e-16 3.07111e-16 -0.0600226
17 1 3.3058 3.3058 3.5239e-05 0 0 0 1.02932e-16 -1.34522e-16 0.0704716
18 1 4.9587 4.9587 1.65287 0 0 0 -2.8052e-16 -2.25699e-18 -0.0600226
99 1 4.04037e-19 6.57299e-19 3.30579 0 0 0 7.63887e-15 -2.66759e-15 -0.0291508
100 1 1.6529 1.6529 4.9587 0 0 0 -9.32001e-12 1.73639e-13 0.00503564
101 1 3.3058 4.92373e-19 3.30579 0 0 0 -2.80477e-15 -1.00355e-14 -0.0291508
102 1 4.9587 1.6529 4.9587 0 0 0 4.44771e-13 6.15357e-12 0.00503564
113 1 3.99967e-19 3.3058 3.30579 0 0 0 8.84918e-15 1.00828e-14 -0.0291508
114 1 1.6529 4.9587 4.9587 0 0 0 1.50464e-11 -1.06425e-11 0.00503564
115 1 3.3058 3.3058 3.30579 0 0 0 -6.70459e-16 2.16279e-14 -0.0291508
116 1 4.9587 4.9587 4.9587 0 0 0 -5.89888e-13 -4.35701e-12 0.00503564
5 1 6.6116 2.47158e-19 3.5239e-05 0 0 0 2.72725e-16 3.24129e-16 0.0704716
6 1 8.2645 1.6529 1.65287 0 0 0 1.74368e-16 9.76828e-17 -0.0600226
7 1 9.9174 2.61958e-19 3.5239e-05 0 0 0 -2.25533e-16 3.4337e-16 0.0704716
19 1 6.6116 3.3058 3.5239e-05 0 0 0 -2.09247e-16 -2.61921e-16 0.0704716
20 1 8.2645 4.9587 1.65287 0 0 0 8.5602e-16 -3.4093e-17 -0.0600226
21 1 9.9174 3.3058 3.5239e-05 0 0 0 -3.49197e-16 -1.64354e-16 0.0704716
103 1 6.6116 9.86042e-19 3.30579 0 0 0 -2.59076e-14 -1.38066e-14 -0.0291508
104 1 8.2645 1.6529 4.9587 0 0 0 2.01118e-11 -5.11536e-12 0.00503564
105 1 9.9174 1.01971e-18 3.30579 0 0 0 5.40545e-14 4.43125e-15 -0.0291508
117 1 6.6116 3.3058 3.30579 0 0 0 -2.84954e-14 2.4726e-14 -0.0291508
118 1 8.2645 4.9587 4.9587 0 0 0 -1.61875e-11 2.7472e-11 0.00503564
119 1 9.9174 3.3058 3.30579 0 0 0 6.01306e-14 3.67134e-15 -0.0291508
8 1 11.5703 1.6529 1.65287 0 0 0 5.60104e-16 1.55405e-16 -0.0600226
9 1 13.2232 2.08678e-19 3.5239e-05 0 0 0 2.07876e-16 2.94529e-16 0.0704716
10 1 14.8761 1.6529 1.65287 0 0 0 -1.2955e-16 2.94529e-16 -0.0600226
11 1 16.529 9.17592e-20 3.5239e-05 0 0 0 -2.50844e-17 1.62805e-16 0.0704716
22 1 11.5703 4.9587 1.65287 0 0 0 7.72097e-16 -8.44167e-17 -0.0600226
23 1 13.2232 3.3058 3.5239e-05 0 0 0 -4.33434e-17 -2.42565e-16 0.0704716
24 1 14.8761 4.9587 1.65287 0 0 0 -3.13792e-16 -3.93122e-17 -0.0600226
25 1 16.529 3.3058 3.5239e-05 0 0 0 -4.97046e-17 -2.05657e-16 0.0704716
106 1 11.5703 1.6529 4.9587 0 0 0 4.26599e-12 1.124e-11 0.00503564
107 1 13.2232 6.14195e-19 3.30579 0 0 0 -5.07967e-14 9.92184e-15 -0.0291508
108 1 14.8761 1.6529 4.9587 0 0 0 -1.81583e-11 -7.30501e-12 0.00503564
109 1 16.529 1.1629e-18 3.30579 0 0 0 6.60896e-14 -4.07752e-16 -0.0291508
120 1 11.5703 4.9587 4.9587 0 0 0 -1.19825e-11 -3.56512e-11 0.00503564
121 1 13.2232 3.3058 3.30579 0 0 0 -5.65675e-14 -4.95241e-15 -0.0291508
122 1 14.8761 4.9587 4.9587 0 0 0 -2.65529e-12 2.04199e-11 0.00503564
123 1 16.529 3.3058 3.30579 0 0 0 7.1576e-14 5.97873e-15 -0.0291508
12 1 18.1819 1.6529 1.65287 0 0 0 8.26465e-16 4.13753e-16 -0.0600226
13 1 19.8348 9.49505e-20 3.5239e-05 0 0 0 -4.39573e-16 2.53226e-16 0.0704716
14 1 21.4877 1.6529 1.65287 0 0 0 -2.82688e-16 6.24393e-17 -0.0600226
26 1 18.1819 4.9587 1.65287 0 0 0 8.50516e-16 3.87861e-17 -0.0600226
27 1 19.8348 3.3058 3.5239e-05 0 0 0 5.32815e-17 -1.38951e-16 0.0704716
28 1 21.4877 4.9587 1.65287 0 0 0 -2.66408e-16 -2.0816e-17 -0.0600226
110 1 18.1819 1.6529 4.9587 0 0 0 -2.2119e-12 9.99989e-12 0.00503564
111 1 19.8348 1.13127e-19 3.30579 0 0 0 -5.07873e-14 -2.25244e-16 -0.0291508
112 1 21.4877 1.6529 4.9587 0 0 0 7.39708e-12 -2.77802e-12 0.00503564
124 1 18.1819 4.9587 4.9587 0 0 0 -6.86942e-12 -9.26096e-12 0.00503564
125 1 19.8348 3.3058 3.30579 0 0 0 -5.62629e-14 4.28838e-15 -0.0291508
126 1 21.4877 4.9587 4.9587 0 0 0 2.56654e-11 5.81255e-12 0.00503564
29 1 5.91995e-20 6.6116 3.5239e-05 0 0 0 1.21364e-16 2.93347e-16 0.0704716
30 1 1.6529 8.2645 1.65287 0 0 0 1.18403e-17 -3.73942e-17 -0.0600226
31 1 3.3058 6.6116 3.5239e-05 0 0 0 -7.95292e-17 6.23349e-17 0.0704716
32 1 4.9587 8.2645 1.65287 0 0 0 1.09437e-16 4.48731e-16 -0.0600226
43 1 0 9.9174 3.5239e-05 0 0 0 3.10809e-17 -6.27382e-16 0.0704716
45 1 3.3058 9.9174 3.5239e-05 0 0 0 7.47884e-17 -5.59901e-16 0.0704716
127 1 5.58695e-19 6.6116 3.30579 0 0 0 3.67606e-15 -2.19167e-14 -0.0291508
128 1 1.6529 8.2645 4.9587 0 0 0 -7.04109e-12 -3.27649e-12 0.00503564
129 1 3.3058 6.6116 3.30579 0 0 0 7.94848e-15 -2.89126e-14 -0.0291508
130 1 4.9587 8.2645 4.9587 0 0 0 1.06828e-11 5.13466e-12 0.00503564
141 1 7.66264e-19 9.9174 3.30579 0 0 0 -8.54725e-17 3.04036e-14 -0.0291508
143 1 3.3058 9.9174 3.30579 0 0 0 1.05805e-14 3.4181e-14 -0.0291508
33 1 6.6116 6.6116 3.5239e-05 0 0 0 2.78734e-16 3.01881e-16 0.0704716
34 1 8.2645 8.2645 1.65287 0 0 0 2.18168e-16 3.79978e-16 -0.0600226
35 1 9.9174 6.6116 3.5239e-05 0 0 0 -2.06639e-16 4.34635e-16 0.0704716
47 1 6.6116 9.9174 3.5239e-05 0 0 0 2.42322e-16 -4.27582e-16 0.0704716
49 1 9.9174 9.9174 3.5239e-05 0 0 0 -3.30177e-16 -6.51774e-16 0.0704716
131 1 6.6116 6.6116 3.30579 0 0 0 -2.04555e-14 -2.02556e-14 -0.0291508
132 1 8.2645 8.2645 4.9587 0 0 0 3.41879e-12 1.17506e-12 0.00503564
133 1 9.9174 6.6116 3.30579 0 0 0 2.62047e-14 -2.10838e-14 -0.0291508
145 1 6.6116 9.9174 3.30579 0 0 0 -2.17522e-14 2.73351e-14 -0.0291508
147 1 9.9174 9.9174 3.30579 0 0 0 2.53045e-14 2.47596e-14 -0.0291508
36 1 11.5703 8.2645 1.65287 0 0 0 5.87161e-16 7.6546e-18 -0.0600226
37 1 13.2232 6.6116 3.5239e-05 0 0 0 6.86253e-17 4.07029e-16 0.0704716
38 1 14.8761 8.2645 1.65287 0 0 0 4.90264e-18 3.34744e-16 -0.0600226
39 1 16.529 6.6116 3.5239e-05 0 0 0 -1.2593e-17 5.61121e-16 0.0704716
51 1 13.2232 9.9174 3.5239e-05 0 0 0 1.24902e-16 -5.47893e-16 0.0704716
53 1 16.529 9.9174 3.5239e-05 0 0 0 -1.19721e-18 -8.08641e-16 0.0704716
134 1 11.5703 8.2645 4.9587 0 0 0 8.94697e-12 9.42202e-12 0.00503564
135 1 13.2232 6.6116 3.30579 0 0 0 -3.52246e-14 -1.66804e-14 -0.0291508
136 1 14.8761 8.2645 4.9587 0 0 0 -9.5138e-13 -9.75834e-12 0.00503564
137 1 16.529 6.6116 3.30579 0 0 0 6.61513e-14 -1.11592e-14 -0.0291508
149 1 13.2232 9.9174 3.30579 0 0 0 -4.18553e-14 1.5805e-14 -0.0291508
151 1 16.529 9.9174 3.30579 0 0 0 7.73667e-14 9.26433e-15 -0.0291508
40 1 18.1819 8.2645 1.65287 0 0 0 9.00699e-16 -1.11133e-16 -0.0600226
41 1 19.8348 6.6116 3.5239e-05 0 0 0 -2.56047e-16 2.6092e-16 0.0704716
42 1 21.4877 8.2645 1.65287 0 0 0 -3.24129e-16 6.1697e-16 -0.0600226
55 1 19.8348 9.9174 3.5239e-05 0 0 0 -1.36164e-16 -9.07931e-16 0.0704716
138 1 18.1819 8.2645 4.9587 0 0 0 -9.17163e-12 1.19448e-11 0.00503564
139 1 19.8348 6.6116 3.30579 0 0 0 -5.11708e-14 -8.10651e-15 -0.0291508
140 1 21.4877 8.2645 4.9587 0 0 0 -4.01726e-12 1.43962e-12 0.00503564
153 1 19.8348 9.9174 3.30579 0 0 0 -5.19895e-14 1.6129e-14 -0.0291508
44 1 1.6529 11.5703 1.65287 0 0 0 3.98872e-16 1.20281e-15 -0.0600226
46 1 4.9587 11.5703 1.65287 0 0 0 -1.52653e-16 1.2955e-15 -0.0600226
57 1 1.89438e-19 13.2232 3.5239e-05 0 0 0 3.24129e-16 2.79444e-16 0.0704716
58 1 1.6529 14.8761 1.65287 0 0 0 1.05823e-16 -7.40068e-16 -0.0600226
59 1 3.3058 13.2232 3.5239e-05 0 0 0 6.24162e-17 2.37675e-16 0.0704716
60 1 4.9587 14.8761 1.65287 0 0 0 2.18509e-17 -8.51603e-16 -0.0600226
71 1 3.99597e-20 16.529 3.5239e-05 0 0 0 1.46524e-16 -3.18801e-16 0.0704716
73 1 3.3058 16.529 3.5239e-05 0 0 0 4.75233e-17 -1.09097e-16 0.0704716
142 1 1.6529 11.5703 4.9587 0 0 0 8.54369e-12 -2.19988e-13 0.00503564
144 1 4.9587 11.5703 4.9587 0 0 0 -8.77809e-12 -5.16736e-12 0.00503564
155 1 0 13.2232 3.30579 0 0 0 5.76847e-16 -3.44997e-14 -0.0291508
156 1 1.6529 14.8761 4.9587 0 0 0 -7.68471e-12 -6.16861e-12 0.00503564
157 1 3.3058 13.2232 3.30579 0 0 0 8.35151e-15 -3.98354e-14 -0.0291508
158 1 4.9587 14.8761 4.9587 0 0 0 5.406e-12 -1.37646e-11 0.00503564
169 1 5.44635e-19 16.529 3.30579 0 0 0 1.0438e-15 6.38209e-14 -0.0291508
171 1 3.3058 16.529 3.30579 0 0 0 5.27894e-15 6.93945e-14 -0.0291508
48 1 8.2645 11.5703 1.65287 0 0 0 3.09699e-16 9.72874e-16 -0.0600226
61 1 6.6116 13.2232 3.5239e-05 0 0 0 9.21439e-17 2.42945e-16 0.0704716
62 1 8.2645 14.8761 1.65287 0 0 0 3.58957e-16 -7.16988e-16 -0.0600226
63 1 9.9174 13.2232 3.5239e-05 0 0 0 -4.79649e-16 2.43155e-16 0.0704716
75 1 6.6116 16.529 3.5239e-05 0 0 0 4.58744e-16 -2.75044e-16 0.0704716
77 1 9.9174 16.529 3.5239e-05 0 0 0 -4.51673e-16 -2.52815e-16 0.0704716
146 1 8.2645 11.5703 4.9587 0 0 0 -2.56968e-12 -2.60419e-12 0.00503564
159 1 6.6116 13.2232 3.30579 0 0 0 -1.94247e-14 -3.55731e-14 -0.0291508
160 1 8.2645 14.8761 4.9587 0 0 0 3.56891e-12 -1.28075e-12 0.00503564
161 1 9.9174 13.2232 3.30579 0 0 0 2.87021e-14 -2.94403e-14 -0.0291508
173 1 6.6116 16.529 3.30579 0 0 0 -1.35702e-14 6.61659e-14 -0.0291508
175 1 9.9174 16.529 3.30579 0 0 0 2.27919e-14 6.61976e-14 -0.0291508
50 1 11.5703 11.5703 1.65287 0 0 0 8.66195e-16 1.50981e-15 -0.0600226
52 1 14.8761 11.5703 1.65287 0 0 0 -5.29324e-16 1.36215e-15 -0.0600226
64 1 11.5703 14.8761 1.65287 0 0 0 8.37751e-16 -9.48985e-16 -0.0600226
65 1 13.2232 13.2232 3.5239e-05 0 0 0 6.91803e-17 1.45301e-16 0.0704716
66 1 14.8761 14.8761 1.65287 0 0 0 -5.18501e-16 -1.24675e-15 -0.0600226
67 1 16.529 13.2232 3.5239e-05 0 0 0 -1.62355e-16 3.3812e-16 0.0704716
79 1 13.2232 16.529 3.5239e-05 0 0 0 7.54821e-17 7.34059e-18 0.0704716
81 1 16.529 16.529 3.5239e-05 0 0 0 -1.33032e-17 -3.32318e-16 0.0704716
148 1 11.5703 11.5703 4.9587 0 0 0 -4.04761e-12 6.66192e-12 0.00503564
150 1 14.8761 11.5703 4.9587 0 0 0 -1.32467e-11 -6.69128e-12 0.00503564
162 1 11.5703 14.8761 4.9587 0 0 0 -5.87296e-13 -2.05839e-11 0.00503564
163 1 13.2232 13.2232 3.30579 0 0 0 -5.23661e-14 -3.02163e-14 -0.0291508
164 1 14.8761 14.8761 4.9587 0 0 0 3.1818e-12 1.08908e-11 0.00503564
165 1 16.529 13.2232 3.30579 0 0 0 8.12658e-14 -2.76202e-14 -0.0291508
177 1 13.2232 16.529 3.30579 0 0 0 -4.04131e-14 7.17738e-14 -0.0291508
179 1 16.529 16.529 3.30579 0 0 0 6.08842e-14 6.12895e-14 -0.0291508
54 1 18.1819 11.5703 1.65287 0 0 0 1.01864e-15 1.24938e-15 -0.0600226
56 1 21.4877 11.5703 1.65287 0 0 0 -6.17178e-16 1.28475e-15 -0.0600226
68 1 18.1819 14.8761 1.65287 0 0 0 1.169e-15 -9.69862e-16 -0.0600226
69 1 19.8348 13.2232 3.5239e-05 0 0 0 -1.31724e-16 2.5525e-16 0.0704716
70 1 21.4877 14.8761 1.65287 0 0 0 -4.17372e-16 -8.2968e-16 -0.0600226
83 1 19.8348 16.529 3.5239e-05 0 0 0 -2.88608e-16 -5.42586e-17 0.0704716
152 1 18.1819 11.5703 4.9587 0 0 0 -9.07425e-12 -6.37211e-13 0.00503564
154 1 21.4877 11.5703 4.9587 0 0 0 3.30773e-11 -8.08717e-13 0.00503564
166 1 18.1819 14.8761 4.9587 0 0 0 1.20779e-11 -2.71095e-11 0.00503564
167 1 19.8348 13.2232 3.30579 0 0 0 -4.91113e-14 -1.98173e-14 -0.0291508
168 1 21.4877 14.8761 4.9587 0 0 0 -1.49534e-11 1.50037e-12 0.00503564
181 1 19.8348 16.529 3.30579 0 0 0 -3.78197e-14 3.7158e-14 -0.0291508
72 1 1.6529 18.1819 1.65287 0 0 0 4.49193e-16 1.36534e-15 -0.0600226
74 1 4.9587 18.1819 1.65287 0 0 0 -1.94926e-16 1.02669e-15 -0.0600226
85 1 1.74639e-19 19.8348 3.5239e-05 0 0 0 3.3449e-16 -1.29134e-16 0.0704716
86 1 1.6529 21.4877 1.65287 0 0 0 1.24324e-16 -4.41423e-16 -0.0600226
87 1 3.3058 19.8348 3.5239e-05 0 0 0 -7.7286e-17 6.39078e-17 0.0704716
88 1 4.9587 21.4877 1.65287 0 0 0 -4.09204e-16 -2.93049e-16 -0.0600226
170 1 1.6529 18.1819 4.9587 0 0 0 7.52343e-12 2.15963e-12 0.00503564
172 1 4.9587 18.1819 4.9587 0 0 0 7.51004e-13 -9.63754e-12 0.00503564
183 1 0 19.8348 3.30579 0 0 0 5.86504e-15 -4.58716e-14 -0.0291508
184 1 1.6529 21.4877 4.9587 0 0 0 6.81128e-12 1.68907e-11 0.00503564
185 1 3.3058 19.8348 3.30579 0 0 0 -5.80917e-16 -4.65231e-14 -0.0291508
186 1 4.9587 21.4877 4.9587 0 0 0 3.82011e-12 2.28302e-11 0.00503564
76 1 8.2645 18.1819 1.65287 0 0 0 1.53641e-16 8.15226e-16 -0.0600226
89 1 6.6116 19.8348 3.5239e-05 0 0 0 -1.01547e-16 -2.47167e-16 0.0704716
90 1 8.2645 21.4877 1.65287 0 0 0 9.96925e-16 -2.02766e-16 -0.0600226
91 1 9.9174 19.8348 3.5239e-05 0 0 0 -4.03786e-16 -8.58425e-17 0.0704716
174 1 8.2645 18.1819 4.9587 0 0 0 1.61183e-12 -2.89008e-12 0.00503564
187 1 6.6116 19.8348 3.30579 0 0 0 -1.24907e-14 -5.06863e-14 -0.0291508
188 1 8.2645 21.4877 4.9587 0 0 0 -1.59181e-11 -1.53296e-11 0.00503564
189 1 9.9174 19.8348 3.30579 0 0 0 2.04383e-14 -5.14755e-14 -0.0291508
78 1 11.5703 18.1819 1.65287 0 0 0 5.76257e-16 1.459e-15 -0.0600226
80 1 14.8761 18.1819 1.65287 0 0 0 -4.1462e-16 1.0055e-15 -0.0600226
92 1 11.5703 21.4877 1.65287 0 0 0 5.32885e-16 -7.94783e-16 -0.0600226
93 1 13.2232 19.8348 3.5239e-05 0 0 0 1.29111e-16 -9.62028e-17 0.0704716
94 1 14.8761 21.4877 1.65287 0 0 0 -5.25739e-16 -3.74451e-16 -0.0600226
95 1 16.529 19.8348 3.5239e-05 0 0 0 1.20029e-17 6.80821e-17 0.0704716
176 1 11.5703 18.1819 4.9587 0 0 0 5.45169e-13 -1.94581e-11 0.00503564
178 1 14.8761 18.1819 4.9587 0 0 0 -1.79301e-11 1.97097e-11 0.00503564
190 1 11.5703 21.4877 4.9587 0 0 0 -4.73887e-12 5.25035e-11 0.00503564
191 1 13.2232 19.8348 3.30579 0 0 0 -2.25153e-14 -4.77911e-14 -0.0291508
192 1 14.8761 21.4877 4.9587 0 0 0 8.32952e-12 -2.5716e-11 0.00503564
193 1 16.529 19.8348 3.30579 0 0 0 3.78634e-14 -3.86652e-14 -0.0291508
82 1 18.1819 18.1819 1.65287 0 0 0 1.01656e-15 1.57327e-15 -0.0600226
84 1 21.4877 18.1819 1.65287 0 0 0 -4.21812e-16 1.14784e-15 -0.0600226
96 1 18.1819 21.4877 1.65287 0 0 0 7.91176e-16 -9.06295e-16 -0.0600226
97 1 19.8348 19.8348 3.5239e-05 0 0 0 -6.8082e-17 3.18209e-17 0.0704716
98 1 21.4877 21.4877 1.65287 0 0 0 -7.84423e-17 -3.24869e-16 -0.0600226
180 1 18.1819 18.1819 4.9587 0 0 0 -2.53254e-11 -2.57449e-11 0.00503564
182 1 21.4877 18.1819 4.9587 0 0 0 3.63761e-11 -2.3497e-12 0.00503564
194 1 18.1819 21.4877 4.9587 0 0 0 1.18698e-12 4.20765e-11 0.00503564
195 1 19.8348 19.8348 3.30579 0 0 0 -3.10718e-14 -3.08384e-14 -0.0291508
196 1 21.4877 21.4877 4.9587 0 0 0 1.39335e-12 -3.73068e-12 0.00503564
197 1 1.79078e-19 0 6.6116 0 0 0 8.56274e-11 4.80773e-11 0.000981079
198 1 1.6529 1.6529 8.2645 0 0 0 -1.19569e-10 -7.00776e-11 -0.000981079
199 1 3.3058 0 6.6116 0 0 0 2.9732e-11 1.96893e-11 0.000981079
200 1 4.9587 1.6529 8.2645 0 0 0 -4.93226e-11 -3.03808e-11 -0.000981079
211 1 4.98756e-19 3.3058 6.6116 0 0 0 8.68639e-11 4.87354e-11 0.000981079
212 1 1.6529 4.9587 8.2645 0 0 0 -7.45298e-11 -5.3601e-11 -0.000981079
213 1 3.3058 3.3058 6.6116 0 0 0 5.13988e-11 8.69785e-11 0.000981079
214 1 4.9587 4.9587 8.2645 0 0 0 1.46681e-11 -6.70418e-12 -0.000981079
295 1 3.10797e-20 0 9.9174 0 0 0 -1.3468e-10 5.55616e-11 -0.00503563
297 1 3.3058 0 9.9174 0 0 0 1.65669e-11 2.13324e-10 -0.00503563
309 1 2.46048e-19 3.3058 9.9174 0 0 0 -2.43716e-11 -1.06396e-10 -0.00503563
311 1 3.3058 3.3058 9.9174 0 0 0 3.196e-11 -1.73743e-10 -0.00503563
201 1 6.6116 3.67037e-19 6.6116 0 0 0 -8.89332e-11 4.47671e-11 0.000981079
202 1 8.2645 1.6529 8.2645 0 0 0 1.04988e-10 -2.68932e-11 -0.00098108
203 1 9.9174 0 6.6116 0 0 0 1.13403e-10 5.50707e-11 0.000981079
215 1 6.6116 3.3058 6.6116 0 0 0 -1.23799e-10 3.36365e-11 0.000981079
216 1 8.2645 4.9587 8.2645 0 0 0 -3.3766e-11 1.57118e-11 -0.000981079
217 1 9.9174 3.3058 6.6116 0 0 0 1.52816e-10 6.05468e-11 0.000981079
299 1 6.6116 0 9.9174 0 0 0 3.90143e-10 3.07493e-10 -0.00503563
301 1 9.9174 1.08409e-19 9.9174 0 0 0 -8.71112e-10 4.29548e-11 -0.00503563
313 1 6.6116 3.3058 9.9174 0 0 0 3.15136e-10 -3.95547e-10 -0.00503563
315 1 9.9174 3.3058 9.9174 0 0 0 -6.72961e-10 -2.65535e-11 -0.00503563
204 1 11.5703 1.6529 8.2645 0 0 0 1.11203e-10 -9.10057e-11 -0.000981079
205 1 13.2232 2.61218e-19 6.6116 0 0 0 -1.82248e-10 5.24307e-11 0.000981079
206 1 14.8761 1.6529 8.2645 0 0 0 8.45077e-11 -6.41258e-11 -0.00098108
207 1 16.529 0 6.6116 0 0 0 1.6629e-10 6.60179e-11 0.000981079
218 1 11.5703 4.9587 8.2645 0 0 0 1.67839e-11 -8.66229e-11 -0.000981079
219 1 13.2232 3.3058 6.6116 0 0 0 -2.44476e-10 3.31167e-11 0.000981079
220 1 14.8761 4.9587 8.2645 0 0 0 1.03454e-10 -5.46707e-11 -0.00098108
221 1 16.529 3.3058 6.6116 0 0 0 2.51464e-10 3.73547e-13 0.000981079
303 1 13.2232 0 9.9174 0 0 0 8.28634e-10 -1.70733e-10 -0.00503563
305 1 16.529 3.58897e-20 9.9174 0 0 0 -1.06824e-09 1.19308e-10 -0.00503563
317 1 13.2232 3.3058 9.9174 0 0 0 5.74011e-10 1.41668e-10 -0.00503563
319 1 16.529 3.3058 9.9174 0 0 0 -8.01483e-10 -1.03487e-10 -0.00503563
208 1 18.1819 1.6529 8.2645 0 0 0 -6.20628e-11 -5.36044e-11 -0.000981079
209 1 19.8348 2.96183e-19 6.6116 0 0 0 -1.21039e-10 1.08953e-11 0.000981079
210 1 21.4877 1.6529 8.2645 0 0 0 -6.90956e-11 -5.04126e-11 -0.00098108
222 1 18.1819 4.9587 8.2645 0 0 0 -2.98367e-11 1.54564e-11 -0.000981079
223 1 19.8348 3.3058 6.6116 0 0 0 -1.79716e-10 2.76021e-11 0.000981079
224 1 21.4877 4.9587 8.2645 0 0 0 -1.70529e-12 -2.84864e-11 -0.000981079
307 1 19.8348 0 9.9174 0 0 0 7.80744e-10 8.56705e-11 -0.00503563
321 1 19.8348 3.3058 9.9174 0 0 0 5.76483e-10 -2.79586e-11 -0.00503563
225 1 7.75513e-19 6.6116 6.6116 0 0 0 4.64212e-11 -6.4571e-11 0.000981079
226 1 1.6529 8.2645 8.2645 0 0 0 -7.26344e-11 3.87946e-11 -0.00098108
227 1 3.3058 6.6116 6.6116 0 0 0 1.37132e-11 -9.89094e-11 0.000981079
228 1 4.9587 8.2645 8.2645 0 0 0 -1.32072e-11 4.29861e-11 -0.000981079
239 1 1.45039e-19 9.9174 6.6116 0 0 0 7.58729e-11 8.79061e-11 0.000981079
241 1 3.3058 9.9174 6.6116 0 0 0 4.44599e-11 1.48258e-10 0.000981079
323 1 0 6.6116 9.9174 0 0 0 -4.75702e-12 3.59352e-10 -0.00503563
325 1 3.3058 6.6116 9.9174 0 0 0 -9.38027e-11 3.26181e-10 -0.00503563
337 1 2.15338e-19 9.9174 9.9174 0 0 0 1.19544e-10 -4.75249e-10 -0.00503563
339 1 3.3058 9.9174 9.9174 0 0 0 -9.74825e-11 -3.14604e-10 -0.00503563
229 1 6.6116 6.6116 6.6116 0 0 0 -6.17405e-11 -1.21342e-10 0.000981079
230 1 8.2645 8.2645 8.2645 0 0 0 4.03899e-11 5.78823e-11 -0.00098108
231 1 9.9174 6.6116 6.6116 0 0 0 1.22898e-10 -6.37165e-11 0.000981079
243 1 6.6116 9.9174 6.6116 0 0 0 -7.99427e-11 1.00035e-10 0.000981079
245 1 9.9174 9.9174 6.6116 0 0 0 1.4442e-10 1.01592e-10 0.000981079
327 1 6.6116 6.6116 9.9174 0 0 0 2.3787e-10 2.93749e-10 -0.00503563
329 1 9.9174 6.6116 9.9174 0 0 0 -3.14852e-10 2.38572e-10 -0.00503563
341 1 6.6116 9.9174 9.9174 0 0 0 2.34968e-10 -4.22103e-10 -0.00503563
343 1 9.9174 9.9174 9.9174 0 0 0 -2.59583e-10 -2.76512e-10 -0.00503563
232 1 11.5703 8.2645 8.2645 0 0 0 1.86123e-11 -4.58814e-12 -0.000981079
233 1 13.2232 6.6116 6.6116 0 0 0 -1.65881e-10 -1.13304e-11 0.000981079
234 1 14.8761 8.2645 8.2645 0 0 0 1.12379e-10 -7.51524e-12 -0.00098108
235 1 16.529 6.6116 6.6116 0 0 0 1.70545e-10 -4.77636e-11 0.000981079
247 1 13.2232 9.9174 6.6116 0 0 0 -2.30426e-10 8.79028e-11 0.000981079
249 1 16.529 9.9174 6.6116 0 0 0 2.17602e-10 9.32749e-11 0.000981079
331 1 13.2232 6.6116 9.9174 0 0 0 3.43997e-10 2.57735e-10 -0.00503563
333 1 16.529 6.6116 9.9174 0 0 0 -9.29094e-10 1.61224e-10 -0.00503563
345 1 13.2232 9.9174 9.9174 0 0 0 3.32176e-10 -2.19342e-10 -0.00503563
347 1 16.529 9.9174 9.9174 0 0 0 -9.57293e-10 -8.79999e-11 -0.00503563
236 1 18.1819 8.2645 8.2645 0 0 0 -3.63913e-11 -4.39617e-11 -0.000981079
237 1 19.8348 6.6116 6.6116 0 0 0 -1.21675e-10 -7.30494e-11 0.000981079
238 1 21.4877 8.2645 8.2645 0 0 0 -7.43182e-11 2.48375e-11 -0.00098108
251 1 19.8348 9.9174 6.6116 0 0 0 -1.6995e-10 6.52045e-11 0.000981079
335 1 19.8348 6.6116 9.9174 0 0 0 6.81375e-10 6.68543e-11 -0.00503563
349 1 19.8348 9.9174 9.9174 0 0 0 5.53107e-10 -1.17088e-10 -0.00503563
240 1 1.6529 11.5703 8.2645 0 0 0 -3.19782e-11 1.52758e-11 -0.000981079
242 1 4.9587 11.5703 8.2645 0 0 0 -3.51622e-11 2.22979e-11 -0.000981079
253 1 3.92937e-19 13.2232 6.6116 0 0 0 5.06521e-11 -1.51677e-10 0.000981079
254 1 1.6529 14.8761 8.2645 0 0 0 -3.94616e-11 1.2742e-10 -0.00098108
255 1 3.3058 13.2232 6.6116 0 0 0 3.42954e-11 -2.05023e-10 0.000981079
256 1 4.9587 14.8761 8.2645 0 0 0 -4.5362e-11 8.78101e-11 -0.00098108
267 1 0 16.529 6.6116 0 0 0 5.41422e-11 1.32537e-10 0.000981079
269 1 3.3058 16.529 6.6116 0 0 0 2.12845e-11 1.94751e-10 0.000981079
351 1 0 13.2232 9.9174 0 0 0 -5.73536e-12 5.23107e-10 -0.00503563
353 1 3.3058 13.2232 9.9174 0 0 0 -7.5651e-11 3.18842e-10 -0.00503563
365 1 1.09519e-19 16.529 9.9174 0 0 0 7.8356e-11 -1.05314e-09 -0.00503563
367 1 3.3058 16.529 9.9174 0 0 0 -6.44447e-11 -8.06409e-10 -0.00503563
244 1 8.2645 11.5703 8.2645 0 0 0 -1.91476e-11 1.16875e-11 -0.000981079
257 1 6.6116 13.2232 6.6116 0 0 0 -6.43123e-11 -1.38439e-10 0.000981079
258 1 8.2645 14.8761 8.2645 0 0 0 1.11972e-11 1.08163e-10 -0.00098108
259 1 9.9174 13.2232 6.6116 0 0 0 1.19249e-10 -2.01941e-10 0.000981079
271 1 6.6116 16.529 6.6116 0 0 0 -7.18809e-11 1.68578e-10 0.000981079
273 1 9.9174 16.529 6.6116 0 0 0 1.06889e-10 2.08519e-10 0.000981079
355 1 6.6116 13.2232 9.9174 0 0 0 3.0916e-10 4.47201e-10 -0.00503563
357 1 9.9174 13.2232 9.9174 0 0 0 -4.2709e-10 1.74199e-10 -0.00503563
369 1 6.6116 16.529 9.9174 0 0 0 1.46201e-10 -9.9664e-10 -0.00503563
371 1 9.9174 16.529 9.9174 0 0 0 -2.57289e-10 -8.03409e-10 -0.00503563
246 1 11.5703 11.5703 8.2645 0 0 0 -3.70528e-11 7.86591e-12 -0.000981079
248 1 14.8761 11.5703 8.2645 0 0 0 8.69593e-11 -5.64239e-11 -0.000981079
260 1 11.5703 14.8761 8.2645 0 0 0 -1.79207e-11 8.83172e-11 -0.000981079
261 1 13.2232 13.2232 6.6116 0 0 0 -1.66663e-10 -1.43118e-10 0.000981079
262 1 14.8761 14.8761 8.2645 0 0 0 1.51325e-10 2.20114e-10 -0.00098108
263 1 16.529 13.2232 6.6116 0 0 0 1.76193e-10 -1.17846e-10 0.000981079
275 1 13.2232 16.529 6.6116 0 0 0 -1.49567e-10 1.36719e-10 0.000981079
277 1 16.529 16.529 6.6116 0 0 0 1.66051e-10 1.28405e-10 0.000981079
359 1 13.2232 13.2232 9.9174 0 0 0 7.3867e-10 3.88524e-10 -0.00503563
361 1 16.529 13.2232 9.9174 0 0 0 -1.27571e-09 2.67985e-10 -0.00503563
373 1 13.2232 16.529 9.9174 0 0 0 4.26359e-10 -1.11646e-09 -0.00503563
375 1 16.529 16.529 9.9174 0 0 0 -7.75494e-10 -8.1308e-10 -0.00503563
250 1 18.1819 11.5703 8.2645 0 0 0 -9.16446e-12 6.54272e-11 -0.000981079
252 1 21.4877 11.5703 8.2645 0 0 0 3.9965e-11 4.05218e-11 -0.000981079
264 1 18.1819 14.8761 8.2645 0 0 0 9.84953e-12 -3.18754e-11 -0.000981079
265 1 19.8348 13.2232 6.6116 0 0 0 -1.49582e-10 -1.14711e-10 0.000981079
266 1 21.4877 14.8761 8.2645 0 0 0 -8.35295e-11 9.80084e-11 -0.00098108
279 1 19.8348 16.529 6.6116 0 0 0 -1.27921e-10 1.7692e-10 0.000981079
363 1 19.8348 13.2232 9.9174 0 0 0 6.89694e-10 6.70422e-11 -0.00503563
377 1 19.8348 16.529 9.9174 0 0 0 4.10364e-10 -3.389e-10 -0.00503563
268 1 1.6529 18.1819 8.2645 0 0 0 -7.33993e-11 -2.66538e-11 -0.000981079
270 1 4.9587 18.1819 8.2645 0 0 0 5.74056e-11 -6.45829e-11 -0.000981079
281 1 2.95998e-19 19.8348 6.6116 0 0 0 2.2136e-11 -1.01105e-10 0.000981079
282 1 1.6529 21.4877 8.2645 0 0 0 -7.82452e-11 -1.86791e-11 -0.000981079
283 1 3.3058 19.8348 6.6116 0 0 0 9.84095e-12 -1.52884e-10 0.000981079
284 1 4.9587 21.4877 8.2645 0 0 0 -3.58493e-11 -4.21929e-11 -0.000981079
379 1 0 19.8348 9.9174 0 0 0 -7.98025e-12 7.1763e-10 -0.00503563
381 1 3.3058 19.8348 9.9174 0 0 0 2.6254e-11 4.97715e-10 -0.00503563
272 1 8.2645 18.1819 8.2645 0 0 0 -5.91384e-11 -3.30073e-11 -0.000981079
285 1 6.6116 19.8348 6.6116 0 0 0 -4.98961e-11 -8.43599e-11 0.000981079
286 1 8.2645 21.4877 8.2645 0 0 0 1.00495e-11 -1.62243e-10 -0.00098108
287 1 9.9174 19.8348 6.6116 0 0 0 1.23784e-10 -1.53964e-10 0.000981079
383 1 6.6116 19.8348 9.9174 0 0 0 6.24024e-11 7.15122e-10 -0.00503563
385 1 9.9174 19.8348 9.9174 0 0 0 -9.66299e-11 5.4267e-10 -0.00503563
274 1 11.5703 18.1819 8.2645 0 0 0 6.12763e-11 1.38294e-12 -0.000981079
276 1 14.8761 18.1819 8.2645 0 0 0 -2.28316e-11 4.34265e-11 -0.000981079
288 1 11.5703 21.4877 8.2645 0 0 0 4.20955e-11 7.07469e-11 -0.000981079
289 1 13.2232 19.8348 6.6116 0 0 0 -1.60685e-10 -1.55777e-10 0.000981079
290 1 14.8761 21.4877 8.2645 0 0 0 1.04378e-10 -9.10617e-11 -0.00098108
291 1 16.529 19.8348 6.6116 0 0 0 1.71281e-10 -1.22647e-10 0.000981079
387 1 13.2232 19.8348 9.9174 0 0 0 2.7938e-11 6.63106e-10 -0.00503563
389 1 16.529 19.8348 9.9174 0 0 0 -2.93993e-10 4.30075e-10 -0.00503563
278 1 18.1819 18.1819 8.2645 0 0 0 -5.50509e-11 -4.45941e-11 -0.000981079
280 1 21.4877 18.1819 8.2645 0 0 0 9.00847e-11 -9.01344e-12 -0.000981079
292 1 18.1819 21.4877 8.2645 0 0 0 -9.09616e-12 9.25477e-11 -0.000981079
293 1 19.8348 19.8348 6.6116 0 0 0 -1.14621e-10 -9.23221e-11 0.000981079
294 1 21.4877 21.4877 8.2645 0 0 0 -5.58604e-11 -7.79228e-11 -0.00098108
391 1 19.8348 19.8348 9.9174 0 0 0 2.22378e-10 2.56222e-10 -0.00503563
296 1 1.6529 1.6529 11.5703 0 0 0 4.73339e-10 3.27915e-10 0.0291508
298 1 4.9587 1.6529 11.5703 0 0 0 1.37168e-10 3.56174e-10 0.0291508
310 1 1.6529 4.9587 11.5703 0 0 0 2.38667e-10 -2.29333e-10 0.0291508
312 1 4.9587 4.9587 11.5703 0 0 0 -4.55225e-10 -6.22214e-10 0.0291508
393 1 3.53717e-19 4.80996e-19 13.2232 0 0 0 4.83397e-10 8.20785e-10 0.0600226
394 1 1.6529 1.6529 14.8761 0 0 0 -2.96623e-05 -3.97724e-05 -0.0703106
395 1 3.3058 4.21796e-20 13.2232 0 0 0 5.37681e-10 1.59252e-09 0.0600226
396 1 4.9587 1.6529 14.8761 0 0 0 6.71407e-05 -4.2718e-05 -0.0702973
407 1 9.91592e-20 3.3058 13.2232 0 0 0 1.89454e-10 -9.21386e-10 0.0600226
408 1 1.6529 4.9587 14.8761 0 0 0 -1.93467e-05 3.64256e-05 -0.0703605
409 1 3.3058 3.3058 13.2232 0 0 0 1.88188e-10 -2.26741e-09 0.0600226
410 1 4.9587 4.9587 14.8761 0 0 0 2.32958e-05 2.72268e-05 -0.0703767
300 1 8.2645 1.6529 11.5703 0 0 0 -5.10898e-10 8.53663e-11 0.0291508
314 1 8.2645 4.9587 11.5703 0 0 0 7.38968e-10 -7.75289e-10 0.0291508
397 1 6.6116 2.69358e-19 13.2232 0 0 0 1.89662e-09 1.54057e-09 0.0600226
398 1 8.2645 1.6529 14.8761 0 0 0 -5.8476e-05 -6.96975e-05 -0.0701872
399 1 9.9174 0 13.2232 0 0 0 -4.13953e-09 4.05386e-10 0.0600226
411 1 6.6116 3.3058 13.2232 0 0 0 2.45013e-09 -1.69315e-09 0.0600226
412 1 8.2645 4.9587 14.8761 0 0 0 -3.50032e-05 5.75305e-05 -0.0702998
413 1 9.9174 3.3058 13.2232 0 0 0 -5.56345e-09 -2.06877e-10 0.0600226
302 1 11.5703 1.6529 11.5703 0 0 0 -6.80401e-10 6.42854e-10 0.0291508
304 1 14.8761 1.6529 11.5703 0 0 0 4.72549e-10 -1.23659e-10 0.0291508
316 1 11.5703 4.9587 11.5703 0 0 0 -2.04583e-10 1.17279e-10 0.0291508
318 1 14.8761 4.9587 11.5703 0 0 0 -2.4193e-11 -2.47976e-10 0.0291508
400 1 11.5703 1.6529 14.8761 0 0 0 7.83719e-10 -1.22974e-09 -0.0704716
401 1 13.2232 0 13.2232 0 0 0 2.83123e-09 1.6875e-10 0.0600226
402 1 14.8761 1.6529 14.8761 0 0 0 -3.05402e-05 -6.0568e-05 -0.0702248
403 1 16.529 2.11638e-19 13.2232 0 0 0 -4.6514e-09 6.26018e-10 0.0600226
414 1 11.5703 4.9587 14.8761 0 0 0 2.84957e-05 2.0186e-05 -0.0703902
415 1 13.2232 3.3058 13.2232 0 0 0 4.03714e-09 1.45199e-10 0.0600226
416 1 14.8761 4.9587 14.8761 0 0 0 -3.10267e-05 6.19825e-05 -0.0702725
417 1 16.529 3.3058 13.2232 0 0 0 -6.09589e-09 -6.62132e-10 0.0600226
306 1 18.1819 1.6529 11.5703 0 0 0 -2.05403e-10 5.89312e-10 0.0291508
308 1 21.4877 1.6529 11.5703 0 0 0 3.19692e-10 6.52768e-11 0.0291508
320 1 18.1819 4.9587 11.5703 0 0 0 1.80806e-11 -5.87214e-10 0.0291508
322 1 21.4877 4.9587 11.5703 0 0 0 -2.65131e-10 -1.69902e-10 0.0291508
404 1 18.1819 1.6529 14.8761 0 0 0 -9.1223e-10 -7.83216e-10 -0.0704716
405 1 19.8348 2.6723e-19 13.2232 0 0 0 3.69925e-09 4.27787e-10 0.0600226
406 1 21.4877 1.6529 14.8761 0 0 0 5.03265e-05 -4.79873e-05 -0.0702923
418 1 18.1819 4.9587 14.8761 0 0 0 -6.04114e-10 6.9405e-10 -0.0704716
419 1 19.8348 3.3058 13.2232 0 0 0 4.74379e-09 -3.89105e-10 0.0600226
420 1 21.4877 4.9587 14.8761 0 0 0 3.86161e-05 4.97792e-05 -0.0703226
324 1 1.6529 8.2645 11.5703 0 0 0 1.68322e-10 3.9425e-10 0.0291508
326 1 4.9587 8.2645 11.5703 0 0 0 -3.38372e-10 4.45308e-10 0.0291508
421 1 1.68719e-19 6.6116 13.2232 0 0 0 4.39518e-10 1.57645e-09 0.0600226
422 1 1.6529 8.2645 14.8761 0 0 0 -5.27032e-05 -4.70852e-05 -0.0702484
423 1 3.3058 6.6116 13.2232 0 0 0 -4.8814e-10 2.34393e-09 0.0600226
424 1 4.9587 8.2645 14.8761 0 0 0 5.54962e-05 -3.77074e-05 -0.0702964
435 1 0 9.9174 13.2232 0 0 0 7.5319e-10 -2.53755e-09 0.0600226
437 1 3.3058 9.9174 13.2232 0 0 0 -1.08442e-09 -3.21008e-09 0.0600226
328 1 8.2645 8.2645 11.5703 0 0 0 1.7408e-10 2.63655e-10 0.0291508
425 1 6.6116 6.6116 13.2232 0 0 0 1.58612e-09 1.50323e-09 0.0600226
426 1 8.2645 8.2645 14.8761 0 0 0 -4.61952e-05 -4.91752e-05 -0.0702174
427 1 9.9174 6.6116 13.2232 0 0 0 -2.06945e-09 1.78775e-09 0.0600226
439 1 6.6116 9.9174 13.2232 0 0 0 1.88625e-09 -2.09373e-09 0.0600226
441 1 9.9174 9.9174 13.2232 0 0 0 -1.8017e-09 -1.7564e-09 0.0600226
330 1 11.5703 8.2645 11.5703 0 0 0 -2.78783e-10 5.9867e-10 0.0291508
332 1 14.8761 8.2645 11.5703 0 0 0 -1.72136e-10 2.47899e-10 0.0291508
428 1 11.5703 8.2645 14.8761 0 0 0 5.39768e-05 -2.89495e-05 -0.0703347
429 1 13.2232 6.6116 13.2232 0 0 0 2.38381e-09 1.56687e-09 0.0600226
430 1 14.8761 8.2645 14.8761 0 0 0 -3.7123e-05 -5.26032e-05 -0.0701922
431 1 16.529 6.6116 13.2232 0 0 0 -4.54593e-09 1.26012e-09 0.0600226
443 1 13.2232 9.9174 13.2232 0 0 0 3.18162e-09 -1.18139e-09 0.0600226
445 1 16.529 9.9174 13.2232 0 0 0 -6.12718e-09 -8.63796e-10 0.0600226
334 1 18.1819 8.2645 11.5703 0 0 0 -9.01918e-11 5.66204e-10 0.0291508
336 1 21.4877 8.2645 11.5703 0 0 0 7.2748e-10 2.72602e-11 0.0291508
432 1 18.1819 8.2645 14.8761 0 0 0 -8.13465e-10 -6.88878e-10 -0.0704716
433 1 19.8348 6.6116 13.2232 0 0 0 3.59359e-09 7.24704e-10 0.0600226
434 1 21.4877 8.2645 14.8761 0 0 0 5.3638e-05 -4.32843e-05 -0.07026
447 1 19.8348 9.9174 13.2232 0 0 0 4.00525e-09 -1.23539e-09 0.0600226
338 1 1.6529 11.5703 11.5703 0 0 0 4.53962e-10 -3.79194e-10 0.0291508
340 1 4.9587 11.5703 11.5703 0 0 0 -5.58071e-10 -3.86146e-10 0.0291508
352 1 1.6529 14.8761 11.5703 0 0 0 -6.28748e-11 2.37096e-11 0.0291508
354 1 4.9587 14.8761 11.5703 0 0 0 3.65353e-11 2.39971e-10 0.0291508
436 1 1.6529 11.5703 14.8761 0 0 0 -2.78453e-05 3.00011e-05 -0.0703731
438 1 4.9587 11.5703 14.8761 0 0 0 1.87876e-05 2.63885e-05 -0.0703954
449 1 2.45678e-19 13.2232 13.2232 0 0 0 4.76284e-10 2.02174e-09 0.0600226