ITEM: TIMESTEP
0
ITEM: NUMBER OF ATOMS
430
ITEM: BOX BOUNDS pp pp pp
0.0000000000000000e+00 2.0000000000000000e+01
0.0000000000000000e+00 2.0000000000000000e+01
0.0000000000000000e+00 5.0000000000000000e+01
ITEM: ATOMS id type x y z fx fy fz vx vy vz q mass 
414 2 0.230096 0.550845 8.11528 12.0132 27.1214 -113.987 0 0 0 0.947963 15.999 
415 2 7.62463 0.379905 7.70942 -17.7949 18.9836 -127.968 0 0 0 0.950624 15.999 
420 2 0.600054 7.90203 8.00158 29.3137 -4.6343 -118.375 0 0 0 0.951666 15.999 
421 2 8.14181 7.85094 8.57213 6.77048 -7.05563 -99.6439 0 0 0 0.953374 15.999 
422 2 7.85819 8.14906 7.42787 -6.71193 7.09906 -137.691 0 0 0 0.953649 15.999 
418 2 15.6248 0.356354 8.31918 -18.8876 18.025 -107.19 0 0 0 0.947863 15.999 
419 2 19.3999 8.09797 7.99842 -26.7185 4.65004 -117.383 0 0 0 0.942735 15.999 
423 2 15.871 7.62356 7.54031 -7.28355 -17.8671 -133.31 0 0 0 0.948521 15.999 
424 2 16.129 8.37644 8.45969 4.59199 17.9076 -102.278 0 0 0 0.946013 15.999 
416 2 8.37537 19.6201 8.29058 17.8597 -16.4529 -107.865 0 0 0 0.944625 15.999 
426 2 0.607829 15.9899 7.98978 29.8547 -1.85057 -117.978 0 0 0 0.946748 15.999 
427 2 7.85767 15.6841 7.50042 -6.76165 -15.9955 -134.972 0 0 0 0.951344 15.999 
428 2 8.14233 16.3159 8.49958 6.7278 13.4017 -101.057 0 0 0 0.946738 15.999 
413 2 19.7699 19.4492 7.88472 -9.26649 -24.3274 -120.019 0 0 0 0.934742 15.999 
417 2 16.3752 19.6436 7.68082 16.1298 -15.2425 -127.046 0 0 0 0.935769 15.999 
425 2 19.3922 16.0101 8.01022 -26.5072 -1.0847 -115.531 0 0 0 0.933712 15.999 
429 2 15.5698 15.7974 8.37889 -21.4673 -10.7649 -105.023 0 0 0 0.946545 15.999 
430 2 16.4302 16.2026 7.62111 18.0882 8.03139 -128.932 0 0 0 0.933986 15.999 
1 1 1.6529 1.6529 18.1819 0 0 0 0 0 0 5.33986 180.95 
2 1 4.9587 1.6529 18.1819 0 0 0 0 0 0 5.33378 180.95 
3 1 8.2645 1.6529 18.1819 0 0 0 0 0 0 5.33499 180.95 
7 1 1.6529 4.9587 18.1819 0 0 0 0 0 0 5.33378 180.95 
8 1 4.9587 4.9587 18.1819 0 0 0 0 0 0 5.35675 180.95 
9 1 8.2645 4.9587 18.1819 0 0 0 0 0 0 5.35762 180.95 
13 1 1.6529 8.2645 18.1819 0 0 0 0 0 0 5.33499 180.95 
14 1 4.9587 8.2645 18.1819 0 0 0 0 0 0 5.35762 180.95 
15 1 8.2645 8.2645 18.1819 0 0 0 0 0 0 5.35781 180.95 
37 1 0 0 19.8348 0 0 0 0 0 0 1.25337 180.95 
39 1 3.3058 0 19.8348 0 0 0 0 0 0 3.59122 180.95 
41 1 6.6116 0 19.8348 0 0 0 0 0 0 3.47297 180.95 
43 1 9.9174 0 19.8348 0 0 0 0 0 0 3.48931 180.95 
50 1 0 3.3058 19.8348 0 0 0 0 0 0 3.59122 180.95 
52 1 3.3058 3.3058 19.8348 0 0 0 0 0 0 5.12427 180.95 
54 1 6.6116 3.3058 19.8348 0 0 0 0 0 0 5.13216 180.95 
56 1 9.9174 3.3058 19.8348 0 0 0 0 0 0 5.13268 180.95 
63 1 0 6.6116 19.8348 0 0 0 0 0 0 3.47297 180.95 
65 1 3.3058 6.6116 19.8348 0 0 0 0 0 0 5.13216 180.95 
67 1 6.6116 6.6116 19.8348 0 0 0 0 0 0 5.14143 180.95 
69 1 9.9174 6.6116 19.8348 0 0 0 0 0 0 5.14162 180.95 
76 1 0 9.9174 19.8348 0 0 0 0 0 0 3.48931 180.95 
78 1 3.3058 9.9174 19.8348 0 0 0 0 0 0 5.13268 180.95 
80 1 6.6116 9.9174 19.8348 0 0 0 0 0 0 5.14162 180.95 
82 1 9.9174 9.9174 19.8348 0 0 0 0 0 0 5.14135 180.95 
4 1 11.5703 1.6529 18.1819 0 0 0 0 0 0 5.335 180.95 
5 1 14.8761 1.6529 18.1819 0 0 0 0 0 0 5.33378 180.95 
6 1 18.1819 1.6529 18.1819 0 0 0 0 0 0 5.33986 180.95 
10 1 11.5703 4.9587 18.1819 0 0 0 0 0 0 5.35762 180.95 
11 1 14.8761 4.9587 18.1819 0 0 0 0 0 0 5.35675 180.95 
12 1 18.1819 4.9587 18.1819 0 0 0 0 0 0 5.33378 180.95 
16 1 11.5703 8.2645 18.1819 0 0 0 0 0 0 5.35781 180.95 
17 1 14.8761 8.2645 18.1819 0 0 0 0 0 0 5.35762 180.95 
18 1 18.1819 8.2645 18.1819 0 0 0 0 0 0 5.33498 180.95 
45 1 13.2232 0 19.8348 0 0 0 0 0 0 3.47297 180.95 
47 1 16.529 0 19.8348 0 0 0 0 0 0 3.59122 180.95 
49 1 19.8348 0 19.8348 0 0 0 0 0 0 1.25337 180.95 
58 1 13.2232 3.3058 19.8348 0 0 0 0 0 0 5.13216 180.95 
60 1 16.529 3.3058 19.8348 0 0 0 0 0 0 5.12427 180.95 
62 1 19.8348 3.3058 19.8348 0 0 0 0 0 0 3.59122 180.95 
71 1 13.2232 6.6116 19.8348 0 0 0 0 0 0 5.14143 180.95 
73 1 16.529 6.6116 19.8348 0 0 0 0 0 0 5.13216 180.95 
75 1 19.8348 6.6116 19.8348 0 0 0 0 0 0 3.47297 180.95 
84 1 13.2232 9.9174 19.8348 0 0 0 0 0 0 5.14162 180.95 
86 1 16.529 9.9174 19.8348 0 0 0 0 0 0 5.13268 180.95 
88 1 19.8348 9.9174 19.8348 0 0 0 0 0 0 3.48931 180.95 
19 1 1.6529 11.5703 18.1819 0 0 0 0 0 0 5.335 180.95 
20 1 4.9587 11.5703 18.1819 0 0 0 0 0 0 5.35762 180.95 
21 1 8.2645 11.5703 18.1819 0 0 0 0 0 0 5.35781 180.95 
25 1 1.6529 14.8761 18.1819 0 0 0 0 0 0 5.33378 180.95 
26 1 4.9587 14.8761 18.1819 0 0 0 0 0 0 5.35675 180.95 
27 1 8.2645 14.8761 18.1819 0 0 0 0 0 0 5.35762 180.95 
31 1 1.6529 18.1819 18.1819 0 0 0 0 0 0 5.33986 180.95 
32 1 4.9587 18.1819 18.1819 0 0 0 0 0 0 5.33378 180.95 
33 1 8.2645 18.1819 18.1819 0 0 0 0 0 0 5.33498 180.95 
89 1 0 13.2232 19.8348 0 0 0 0 0 0 3.47297 180.95 
91 1 3.3058 13.2232 19.8348 0 0 0 0 0 0 5.13216 180.95 
93 1 6.6116 13.2232 19.8348 0 0 0 0 0 0 5.14143 180.95 
95 1 9.9174 13.2232 19.8348 0 0 0 0 0 0 5.14162 180.95 
102 1 0 16.529 19.8348 0 0 0 0 0 0 3.59122 180.95 
104 1 3.3058 16.529 19.8348 0 0 0 0 0 0 5.12427 180.95 
106 1 6.6116 16.529 19.8348 0 0 0 0 0 0 5.13216 180.95 
108 1 9.9174 16.529 19.8348 0 0 0 0 0 0 5.13268 180.95 
115 1 0 19.8348 19.8348 0 0 0 0 0 0 1.25337 180.95 
116 1 3.3058 19.8348 19.8348 0 0 0 0 0 0 3.59122 180.95 
117 1 6.6116 19.8348 19.8348 0 0 0 0 0 0 3.47297 180.95 
118 1 9.9174 19.8348 19.8348 0 0 0 0 0 0 3.48931 180.95 
22 1 11.5703 11.5703 18.1819 0 0 0 0 0 0 5.35781 180.95 
23 1 14.8761 11.5703 18.1819 0 0 0 0 0 0 5.35762 180.95 
24 1 18.1819 11.5703 18.1819 0 0 0 0 0 0 5.335 180.95 
28 1 11.5703 14.8761 18.1819 0 0 0 0 0 0 5.35762 180.95 
29 1 14.8761 14.8761 18.1819 0 0 0 0 0 0 5.35675 180.95 
30 1 18.1819 14.8761 18.1819 0 0 0 0 0 0 5.33378 180.95 
34 1 11.5703 18.1819 18.1819 0 0 0 0 0 0 5.335 180.95 
35 1 14.8761 18.1819 18.1819 0 0 0 0 0 0 5.33378 180.95 
36 1 18.1819 18.1819 18.1819 0 0 0 0 0 0 5.33988 180.95 
97 1 13.2232 13.2232 19.8348 0 0 0 0 0 0 5.14143 180.95 
99 1 16.529 13.2232 19.8348 0 0 0 0 0 0 5.13216 180.95 
101 1 19.8348 13.2232 19.8348 0 0 0 0 0 0 3.47297 180.95 
110 1 13.2232 16.529 19.8348 0 0 0 0 0 0 5.13216 180.95 
112 1 16.529 16.529 19.8348 0 0 0 0 0 0 5.12428 180.95 
114 1 19.8348 16.529 19.8348 0 0 0 0 0 0 3.59122 180.95 
119 1 13.2232 19.8348 19.8348 0 0 0 0 0 0 3.47297 180.95 
120 1 16.529 19.8348 19.8348 0 0 0 0 0 0 3.59122 180.95 
121 1 19.8348 19.8348 19.8348 0 0 0 0 0 0 1.25337 180.95 
38 1 1.6529 1.6529 21.4877 0 0 0 0 0 0 5.06139 180.95 
40 1 4.9587 1.6529 21.4877 0 0 0 0 0 0 5.04978 180.95 
42 1 8.2645 1.6529 21.4877 0 0 0 0 0 0 5.05207 180.95 
51 1 1.6529 4.9587 21.4877 0 0 0 0 0 0 5.04978 180.95 
53 1 4.9587 4.9587 21.4877 0 0 0 0 0 0 5.08513 180.95 
55 1 8.2645 4.9587 21.4877 0 0 0 0 0 0 5.08565 180.95 
64 1 1.6529 8.2645 21.4877 0 0 0 0 0 0 5.05207 180.95 
66 1 4.9587 8.2645 21.4877 0 0 0 0 0 0 5.08565 180.95 
68 1 8.2645 8.2645 21.4877 0 0 0 0 0 0 5.08613 180.95 
122 1 0 0 23.1406 0 0 0 0 0 0 1.0269 180.95 
123 1 1.6529 1.6529 24.7935 0 0 0 0 0 0 5.08074 180.95 
124 1 3.3058 0 23.1406 0 0 0 0 0 0 3.03264 180.95 
125 1 4.9587 1.6529 24.7935 0 0 0 0 0 0 5.06174 180.95 
126 1 6.6116 0 23.1406 0 0 0 0 0 0 2.92435 180.95 
127 1 8.2645 1.6529 24.7935 0 0 0 0 0 0 5.06348 180.95 
128 1 9.9174 0 23.1406 0 0 0 0 0 0 2.93539 180.95 
135 1 0 3.3058 23.1406 0 0 0 0 0 0 3.03264 180.95 
136 1 1.6529 4.9587 24.7935 0 0 0 0 0 0 5.06174 180.95 
137 1 3.3058 3.3058 23.1406 0 0 0 0 0 0 5.07396 180.95 
138 1 4.9587 4.9587 24.7935 0 0 0 0 0 0 5.08112 180.95 
139 1 6.6116 3.3058 23.1406 0 0 0 0 0 0 5.07701 180.95 
140 1 8.2645 4.9587 24.7935 0 0 0 0 0 0 5.08108 180.95 
141 1 9.9174 3.3058 23.1406 0 0 0 0 0 0 5.07757 180.95 
148 1 0 6.6116 23.1406 0 0 0 0 0 0 2.92435 180.95 
149 1 1.6529 8.2645 24.7935 0 0 0 0 0 0 5.06348 180.95 
150 1 3.3058 6.6116 23.1406 0 0 0 0 0 0 5.07701 180.95 
151 1 4.9587 8.2645 24.7935 0 0 0 0 0 0 5.08108 180.95 
152 1 6.6116 6.6116 23.1406 0 0 0 0 0 0 5.08105 180.95 
153 1 8.2645 8.2645 24.7935 0 0 0 0 0 0 5.08111 180.95 
154 1 9.9174 6.6116 23.1406 0 0 0 0 0 0 5.08099 180.95 
161 1 0 9.9174 23.1406 0 0 0 0 0 0 2.93539 180.95 
163 1 3.3058 9.9174 23.1406 0 0 0 0 0 0 5.07757 180.95 
165 1 6.6116 9.9174 23.1406 0 0 0 0 0 0 5.08099 180.95 
167 1 9.9174 9.9174 23.1406 0 0 0 0 0 0 5.08094 180.95 
207 1 0 0 26.4464 0 0 0 0 0 0 1.02693 180.95 
208 1 1.6529 1.6529 28.0993 0 0 0 0 0 0 5.06154 180.95 
209 1 3.3058 0 26.4464 0 0 0 0 0 0 3.03264 180.95 
210 1 4.9587 1.6529 28.0993 0 0 0 0 0 0 5.05003 180.95 
211 1 6.6116 0 26.4464 0 0 0 0 0 0 2.92435 180.95 
212 1 8.2645 1.6529 28.0993 0 0 0 0 0 0 5.05207 180.95 
213 1 9.9174 0 26.4464 0 0 0 0 0 0 2.93539 180.95 
220 1 0 3.3058 26.4464 0 0 0 0 0 0 3.03264 180.95 
221 1 1.6529 4.9587 28.0993 0 0 0 0 0 0 5.05 180.95 
222 1 3.3058 3.3058 26.4464 0 0 0 0 0 0 5.07395 180.95 
223 1 4.9587 4.9587 28.0993 0 0 0 0 0 0 5.08514 180.95 
224 1 6.6116 3.3058 26.4464 0 0 0 0 0 0 5.07701 180.95 
225 1 8.2645 4.9587 28.0993 0 0 0 0 0 0 5.08565 180.95 
226 1 9.9174 3.3058 26.4464 0 0 0 0 0 0 5.07756 180.95 
233 1 0 6.6116 26.4464 0 0 0 0 0 0 2.92435 180.95 
234 1 1.6529 8.2645 28.0993 0 0 0 0 0 0 5.05207 180.95 
235 1 3.3058 6.6116 26.4464 0 0 0 0 0 0 5.07701 180.95 
236 1 4.9587 8.2645 28.0993 0 0 0 0 0 0 5.08565 180.95 
237 1 6.6116 6.6116 26.4464 0 0 0 0 0 0 5.08105 180.95 
238 1 8.2645 8.2645 28.0993 0 0 0 0 0 0 5.08613 180.95 
239 1 9.9174 6.6116 26.4464 0 0 0 0 0 0 5.08098 180.95 
246 1 0 9.9174 26.4464 0 0 0 0 0 0 2.93539 180.95 
248 1 3.3058 9.9174 26.4464 0 0 0 0 0 0 5.07756 180.95 
250 1 6.6116 9.9174 26.4464 0 0 0 0 0 0 5.08098 180.95 
252 1 9.9174 9.9174 26.4464 0 0 0 0 0 0 5.08094 180.95 
44 1 11.5703 1.6529 21.4877 0 0 0 0 0 0 5.05207 180.95 
46 1 14.8761 1.6529 21.4877 0 0 0 0 0 0 5.04978 180.95 
48 1 18.1819 1.6529 21.4877 0 0 0 0 0 0 5.0614 180.95 
57 1 11.5703 4.9587 21.4877 0 0 0 0 0 0 5.08565 180.95 
59 1 14.8761 4.9587 21.4877 0 0 0 0 0 0 5.08513 180.95 
61 1 18.1819 4.9587 21.4877 0 0 0 0 0 0 5.04978 180.95 
70 1 11.5703 8.2645 21.4877 0 0 0 0 0 0 5.08613 180.95 
72 1 14.8761 8.2645 21.4877 0 0 0 0 0 0 5.08565 180.95 
74 1 18.1819 8.2645 21.4877 0 0 0 0 0 0 5.05207 180.95 
129 1 11.5703 1.6529 24.7935 0 0 0 0 0 0 5.06348 180.95 
130 1 13.2232 0 23.1406 0 0 0 0 0 0 2.92435 180.95 
131 1 14.8761 1.6529 24.7935 0 0 0 0 0 0 5.06174 180.95 
132 1 16.529 0 23.1406 0 0 0 0 0 0 3.03264 180.95 
133 1 18.1819 1.6529 24.7935 0 0 0 0 0 0 5.08072 180.95 
134 1 19.8348 0 23.1406 0 0 0 0 0 0 1.0269 180.95 
142 1 11.5703 4.9587 24.7935 0 0 0 0 0 0 5.08108 180.95 
143 1 13.2232 3.3058 23.1406 0 0 0 0 0 0 5.07701 180.95 
144 1 14.8761 4.9587 24.7935 0 0 0 0 0 0 5.08112 180.95 
145 1 16.529 3.3058 23.1406 0 0 0 0 0 0 5.07396 180.95 
146 1 18.1819 4.9587 24.7935 0 0 0 0 0 0 5.06174 180.95 
147 1 19.8348 3.3058 23.1406 0 0 0 0 0 0 3.03264 180.95 
155 1 11.5703 8.2645 24.7935 0 0 0 0 0 0 5.08111 180.95 
156 1 13.2232 6.6116 23.1406 0 0 0 0 0 0 5.08105 180.95 
157 1 14.8761 8.2645 24.7935 0 0 0 0 0 0 5.08108 180.95 
158 1 16.529 6.6116 23.1406 0 0 0 0 0 0 5.07701 180.95 
159 1 18.1819 8.2645 24.7935 0 0 0 0 0 0 5.06348 180.95 
160 1 19.8348 6.6116 23.1406 0 0 0 0 0 0 2.92435 180.95 
169 1 13.2232 9.9174 23.1406 0 0 0 0 0 0 5.08099 180.95 
171 1 16.529 9.9174 23.1406 0 0 0 0 0 0 5.07757 180.95 
173 1 19.8348 9.9174 23.1406 0 0 0 0 0 0 2.93539 180.95 
214 1 11.5703 1.6529 28.0993 0 0 0 0 0 0 5.05208 180.95 
215 1 13.2232 0 26.4464 0 0 0 0 0 0 2.92434 180.95 
216 1 14.8761 1.6529 28.0993 0 0 0 0 0 0 5.05019 180.95 
217 1 16.529 0 26.4464 0 0 0 0 0 0 3.03266 180.95 
218 1 18.1819 1.6529 28.0993 0 0 0 0 0 0 5.06137 180.95 
219 1 19.8348 0 26.4464 0 0 0 0 0 0 1.02693 180.95 
227 1 11.5703 4.9587 28.0993 0 0 0 0 0 0 5.08565 180.95 
228 1 13.2232 3.3058 26.4464 0 0 0 0 0 0 5.07701 180.95 
229 1 14.8761 4.9587 28.0993 0 0 0 0 0 0 5.08514 180.95 
230 1 16.529 3.3058 26.4464 0 0 0 0 0 0 5.07395 180.95 
231 1 18.1819 4.9587 28.0993 0 0 0 0 0 0 5.04999 180.95 
232 1 19.8348 3.3058 26.4464 0 0 0 0 0 0 3.03265 180.95 
240 1 11.5703 8.2645 28.0993 0 0 0 0 0 0 5.08613 180.95 
241 1 13.2232 6.6116 26.4464 0 0 0 0 0 0 5.08105 180.95 
242 1 14.8761 8.2645 28.0993 0 0 0 0 0 0 5.08565 180.95 
243 1 16.529 6.6116 26.4464 0 0 0 0 0 0 5.07701 180.95 
244 1 18.1819 8.2645 28.0993 0 0 0 0 0 0 5.05207 180.95 
245 1 19.8348 6.6116 26.4464 0 0 0 0 0 0 2.92435 180.95 
254 1 13.2232 9.9174 26.4464 0 0 0 0 0 0 5.08099 180.95 
256 1 16.529 9.9174 26.4464 0 0 0 0 0 0 5.07756 180.95 
258 1 19.8348 9.9174 26.4464 0 0 0 0 0 0 2.93539 180.95 
77 1 1.6529 11.5703 21.4877 0 0 0 0 0 0 5.05207 180.95 
79 1 4.9587 11.5703 21.4877 0 0 0 0 0 0 5.08565 180.95 
81 1 8.2645 11.5703 21.4877 0 0 0 0 0 0 5.08613 180.95 
90 1 1.6529 14.8761 21.4877 0 0 0 0 0 0 5.04978 180.95 
92 1 4.9587 14.8761 21.4877 0 0 0 0 0 0 5.08513 180.95 
94 1 8.2645 14.8761 21.4877 0 0 0 0 0 0 5.08565 180.95 
103 1 1.6529 18.1819 21.4877 0 0 0 0 0 0 5.0614 180.95 
105 1 4.9587 18.1819 21.4877 0 0 0 0 0 0 5.04978 180.95 
107 1 8.2645 18.1819 21.4877 0 0 0 0 0 0 5.05207 180.95 
162 1 1.6529 11.5703 24.7935 0 0 0 0 0 0 5.06348 180.95 
164 1 4.9587 11.5703 24.7935 0 0 0 0 0 0 5.08108 180.95 
166 1 8.2645 11.5703 24.7935 0 0 0 0 0 0 5.08111 180.95 
174 1 0 13.2232 23.1406 0 0 0 0 0 0 2.92435 180.95 
175 1 1.6529 14.8761 24.7935 0 0 0 0 0 0 5.06174 180.95 
176 1 3.3058 13.2232 23.1406 0 0 0 0 0 0 5.07701 180.95 
177 1 4.9587 14.8761 24.7935 0 0 0 0 0 0 5.08112 180.95 
178 1 6.6116 13.2232 23.1406 0 0 0 0 0 0 5.08105 180.95 
179 1 8.2645 14.8761 24.7935 0 0 0 0 0 0 5.08108 180.95 
180 1 9.9174 13.2232 23.1406 0 0 0 0 0 0 5.08099 180.95 
187 1 0 16.529 23.1406 0 0 0 0 0 0 3.03264 180.95 
188 1 1.6529 18.1819 24.7935 0 0 0 0 0 0 5.08073 180.95 
189 1 3.3058 16.529 23.1406 0 0 0 0 0 0 5.07396 180.95 
190 1 4.9587 18.1819 24.7935 0 0 0 0 0 0 5.06174 180.95 
191 1 6.6116 16.529 23.1406 0 0 0 0 0 0 5.07701 180.95 
192 1 8.2645 18.1819 24.7935 0 0 0 0 0 0 5.06348 180.95 
193 1 9.9174 16.529 23.1406 0 0 0 0 0 0 5.07757 180.95 
200 1 0 19.8348 23.1406 0 0 0 0 0 0 1.0269 180.95 
201 1 3.3058 19.8348 23.1406 0 0 0 0 0 0 3.03264 180.95 
202 1 6.6116 19.8348 23.1406 0 0 0 0 0 0 2.92435 180.95 
203 1 9.9174 19.8348 23.1406 0 0 0 0 0 0 2.93539 180.95 
247 1 1.6529 11.5703 28.0993 0 0 0 0 0 0 5.05208 180.95 
249 1 4.9587 11.5703 28.0993 0 0 0 0 0 0 5.08565 180.95 
251 1 8.2645 11.5703 28.0993 0 0 0 0 0 0 5.08613 180.95 
259 1 0 13.2232 26.4464 0 0 0 0 0 0 2.92434 180.95 
260 1 1.6529 14.8761 28.0993 0 0 0 0 0 0 5.05018 180.95 
261 1 3.3058 13.2232 26.4464 0 0 0 0 0 0 5.07701 180.95 
262 1 4.9587 14.8761 28.0993 0 0 0 0 0 0 5.08514 180.95 
263 1 6.6116 13.2232 26.4464 0 0 0 0 0 0 5.08105 180.95 
264 1 8.2645 14.8761 28.0993 0 0 0 0 0 0 5.08565 180.95 
265 1 9.9174 13.2232 26.4464 0 0 0 0 0 0 5.08099 180.95 
272 1 0 16.529 26.4464 0 0 0 0 0 0 3.03266 180.95 
273 1 1.6529 18.1819 28.0993 0 0 0 0 0 0 5.06137 180.95 
274 1 3.3058 16.529 26.4464 0 0 0 0 0 0 5.07395 180.95 
275 1 4.9587 18.1819 28.0993 0 0 0 0 0 0 5.04999 180.95 
276 1 6.6116 16.529 26.4464 0 0 0 0 0 0 5.07701 180.95 
277 1 8.2645 18.1819 28.0993 0 0 0 0 0 0 5.05207 180.95 
278 1 9.9174 16.529 26.4464 0 0 0 0 0 0 5.07756 180.95 
285 1 0 19.8348 26.4464 0 0 0 0 0 0 1.02693 180.95 
286 1 3.3058 19.8348 26.4464 0 0 0 0 0 0 3.03265 180.95 
287 1 6.6116 19.8348 26.4464 0 0 0 0 0 0 2.92435 180.95 
288 1 9.9174 19.8348 26.4464 0 0 0 0 0 0 2.93539 180.95 
83 1 11.5703 11.5703 21.4877 0 0 0 0 0 0 5.08613 180.95 
85 1 14.8761 11.5703 21.4877 0 0 0 0 0 0 5.08565 180.95 
87 1 18.1819 11.5703 21.4877 0 0 0 0 0 0 5.05207 180.95 
96 1 11.5703 14.8761 21.4877 0 0 0 0 0 0 5.08565 180.95 
98 1 14.8761 14.8761 21.4877 0 0 0 0 0 0 5.08513 180.95 
100 1 18.1819 14.8761 21.4877 0 0 0 0 0 0 5.04978 180.95 
109 1 11.5703 18.1819 21.4877 0 0 0 0 0 0 5.05207 180.95 
111 1 14.8761 18.1819 21.4877 0 0 0 0 0 0 5.04978 180.95 
113 1 18.1819 18.1819 21.4877 0 0 0 0 0 0 5.06142 180.95 
168 1 11.5703 11.5703 24.7935 0 0 0 0 0 0 5.08111 180.95 
170 1 14.8761 11.5703 24.7935 0 0 0 0 0 0 5.08108 180.95 
172 1 18.1819 11.5703 24.7935 0 0 0 0 0 0 5.06348 180.95 
181 1 11.5703 14.8761 24.7935 0 0 0 0 0 0 5.08108 180.95 
182 1 13.2232 13.2232 23.1406 0 0 0 0 0 0 5.08105 180.95 
183 1 14.8761 14.8761 24.7935 0 0 0 0 0 0 5.08112 180.95 
184 1 16.529 13.2232 23.1406 0 0 0 0 0 0 5.07701 180.95 
185 1 18.1819 14.8761 24.7935 0 0 0 0 0 0 5.06174 180.95 
186 1 19.8348 13.2232 23.1406 0 0 0 0 0 0 2.92435 180.95 
194 1 11.5703 18.1819 24.7935 0 0 0 0 0 0 5.06348 180.95 
195 1 13.2232 16.529 23.1406 0 0 0 0 0 0 5.07701 180.95 
196 1 14.8761 18.1819 24.7935 0 0 0 0 0 0 5.06174 180.95 
197 1 16.529 16.529 23.1406 0 0 0 0 0 0 5.07396 180.95 
198 1 18.1819 18.1819 24.7935 0 0 0 0 0 0 5.08071 180.95 
199 1 19.8348 16.529 23.1406 0 0 0 0 0 0 3.03264 180.95 
204 1 13.2232 19.8348 23.1406 0 0 0 0 0 0 2.92435 180.95 
205 1 16.529 19.8348 23.1406 0 0 0 0 0 0 3.03264 180.95 
206 1 19.8348 19.8348 23.1406 0 0 0 0 0 0 1.0269 180.95 
253 1 11.5703 11.5703 28.0993 0 0 0 0 0 0 5.08613 180.95 
255 1 14.8761 11.5703 28.0993 0 0 0 0 0 0 5.08565 180.95 
257 1 18.1819 11.5703 28.0993 0 0 0 0 0 0 5.05207 180.95 
266 1 11.5703 14.8761 28.0993 0 0 0 0 0 0 5.08565 180.95 
267 1 13.2232 13.2232 26.4464 0 0 0 0 0 0 5.08105 180.95 
268 1 14.8761 14.8761 28.0993 0 0 0 0 0 0 5.08516 180.95 
269 1 16.529 13.2232 26.4464 0 0 0 0 0 0 5.077 180.95 
270 1 18.1819 14.8761 28.0993 0 0 0 0 0 0 5.0502 180.95 
271 1 19.8348 13.2232 26.4464 0 0 0 0 0 0 2.92434 180.95 
279 1 11.5703 18.1819 28.0993 0 0 0 0 0 0 5.05207 180.95 
280 1 13.2232 16.529 26.4464 0 0 0 0 0 0 5.077 180.95 
281 1 14.8761 18.1819 28.0993 0 0 0 0 0 0 5.05021 180.95 
282 1 16.529 16.529 26.4464 0 0 0 0 0 0 5.07395 180.95 
283 1 18.1819 18.1819 28.0993 0 0 0 0 0 0 5.06142 180.95 
284 1 19.8348 16.529 26.4464 0 0 0 0 0 0 3.03266 180.95 
289 1 13.2232 19.8348 26.4464 0 0 0 0 0 0 2.92434 180.95 
290 1 16.529 19.8348 26.4464 0 0 0 0 0 0 3.03266 180.95 
291 1 19.8348 19.8348 26.4464 0 0 0 0 0 0 1.02694 180.95 
292 1 0 0 29.7522 0 0 0 0 0 0 1.25344 180.95 
293 1 1.6529 1.6529 31.4051 0 0 0 0 0 0 5.33971 180.95 
294 1 3.3058 0 29.7522 0 0 0 0 0 0 3.59128 180.95 
295 1 4.9587 1.6529 31.4051 0 0 0 0 0 0 5.3338 180.95 
296 1 6.6116 0 29.7522 0 0 0 0 0 0 3.47293 180.95 
297 1 8.2645 1.6529 31.4051 0 0 0 0 0 0 5.33498 180.95 
298 1 9.9174 0 29.7522 0 0 0 0 0 0 3.48935 180.95 
305 1 0 3.3058 29.7522 0 0 0 0 0 0 3.59128 180.95 
306 1 1.6529 4.9587 31.4051 0 0 0 0 0 0 5.3338 180.95 
307 1 3.3058 3.3058 29.7522 0 0 0 0 0 0 5.12421 180.95 
308 1 4.9587 4.9587 31.4051 0 0 0 0 0 0 5.35678 180.95 
309 1 6.6116 3.3058 29.7522 0 0 0 0 0 0 5.13218 180.95 
310 1 8.2645 4.9587 31.4051 0 0 0 0 0 0 5.35762 180.95 
311 1 9.9174 3.3058 29.7522 0 0 0 0 0 0 5.13269 180.95 
318 1 0 6.6116 29.7522 0 0 0 0 0 0 3.47294 180.95 
319 1 1.6529 8.2645 31.4051 0 0 0 0 0 0 5.33498 180.95 
320 1 3.3058 6.6116 29.7522 0 0 0 0 0 0 5.13217 180.95 
321 1 4.9587 8.2645 31.4051 0 0 0 0 0 0 5.35762 180.95 
322 1 6.6116 6.6116 29.7522 0 0 0 0 0 0 5.14143 180.95 
323 1 8.2645 8.2645 31.4051 0 0 0 0 0 0 5.3578 180.95 
324 1 9.9174 6.6116 29.7522 0 0 0 0 0 0 5.14163 180.95 
331 1 0 9.9174 29.7522 0 0 0 0 0 0 3.48935 180.95 
333 1 3.3058 9.9174 29.7522 0 0 0 0 0 0 5.13269 180.95 
335 1 6.6116 9.9174 29.7522 0 0 0 0 0 0 5.14163 180.95 
337 1 9.9174 9.9174 29.7522 0 0 0 0 0 0 5.14135 180.95 
299 1 11.5703 1.6529 31.4051 0 0 0 0 0 0 5.33496 180.95 
300 1 13.2232 0 29.7522 0 0 0 0 0 0 3.47297 180.95 
301 1 14.8761 1.6529 31.4051 0 0 0 0 0 0 5.33379 180.95 
302 1 16.529 0 29.7522 0 0 0 0 0 0 3.59137 180.95 
303 1 18.1819 1.6529 31.4051 0 0 0 0 0 0 5.33983 180.95 
304 1 19.8348 0 29.7522 0 0 0 0 0 0 1.25344 180.95 
312 1 11.5703 4.9587 31.4051 0 0 0 0 0 0 5.35763 180.95 
313 1 13.2232 3.3058 29.7522 0 0 0 0 0 0 5.13218 180.95 
314 1 14.8761 4.9587 31.4051 0 0 0 0 0 0 5.35685 180.95 
315 1 16.529 3.3058 29.7522 0 0 0 0 0 0 5.12421 180.95 
316 1 18.1819 4.9587 31.4051 0 0 0 0 0 0 5.3338 180.95 
317 1 19.8348 3.3058 29.7522 0 0 0 0 0 0 3.59129 180.95 
325 1 11.5703 8.2645 31.4051 0 0 0 0 0 0 5.35781 180.95 
326 1 13.2232 6.6116 29.7522 0 0 0 0 0 0 5.14143 180.95 
327 1 14.8761 8.2645 31.4051 0 0 0 0 0 0 5.35765 180.95 
328 1 16.529 6.6116 29.7522 0 0 0 0 0 0 5.13219 180.95 
329 1 18.1819 8.2645 31.4051 0 0 0 0 0 0 5.33495 180.95 
330 1 19.8348 6.6116 29.7522 0 0 0 0 0 0 3.47294 180.95 
339 1 13.2232 9.9174 29.7522 0 0 0 0 0 0 5.14162 180.95 
341 1 16.529 9.9174 29.7522 0 0 0 0 0 0 5.1327 180.95 
343 1 19.8348 9.9174 29.7522 0 0 0 0 0 0 3.48935 180.95 
332 1 1.6529 11.5703 31.4051 0 0 0 0 0 0 5.33496 180.95 
334 1 4.9587 11.5703 31.4051 0 0 0 0 0 0 5.35762 180.95 
336 1 8.2645 11.5703 31.4051 0 0 0 0 0 0 5.35781 180.95 
344 1 0 13.2232 29.7522 0 0 0 0 0 0 3.47297 180.95 
345 1 1.6529 14.8761 31.4051 0 0 0 0 0 0 5.33379 180.95 
346 1 3.3058 13.2232 29.7522 0 0 0 0 0 0 5.13218 180.95 
347 1 4.9587 14.8761 31.4051 0 0 0 0 0 0 5.35683 180.95 
348 1 6.6116 13.2232 29.7522 0 0 0 0 0 0 5.14143 180.95 
349 1 8.2645 14.8761 31.4051 0 0 0 0 0 0 5.35764 180.95 
350 1 9.9174 13.2232 29.7522 0 0 0 0 0 0 5.14162 180.95 
357 1 0 16.529 29.7522 0 0 0 0 0 0 3.59137 180.95 
358 1 1.6529 18.1819 31.4051 0 0 0 0 0 0 5.33987 180.95 
359 1 3.3058 16.529 29.7522 0 0 0 0 0 0 5.12421 180.95 
360 1 4.9587 18.1819 31.4051 0 0 0 0 0 0 5.3338 180.95 
361 1 6.6116 16.529 29.7522 0 0 0 0 0 0 5.1322 180.95 
362 1 8.2645 18.1819 31.4051 0 0 0 0 0 0 5.33496 180.95 
363 1 9.9174 16.529 29.7522 0 0 0 0 0 0 5.1327 180.95 
370 1 0 19.8348 29.7522 0 0 0 0 0 0 1.25344 180.95 
371 1 3.3058 19.8348 29.7522 0 0 0 0 0 0 3.59128 180.95 
372 1 6.6116 19.8348 29.7522 0 0 0 0 0 0 3.47293 180.95 
373 1 9.9174 19.8348 29.7522 0 0 0 0 0 0 3.48935 180.95 
338 1 11.5703 11.5703 31.4051 0 0 0 0 0 0 5.35781 180.95 
340 1 14.8761 11.5703 31.4051 0 0 0 0 0 0 5.35764 180.95 
342 1 18.1819 11.5703 31.4051 0 0 0 0 0 0 5.33496 180.95 
351 1 11.5703 14.8761 31.4051 0 0 0 0 0 0 5.35763 180.95 
352 1 13.2232 13.2232 29.7522 0 0 0 0 0 0 5.14142 180.95 
353 1 14.8761 14.8761 31.4051 0 0 0 0 0 0 5.35676 180.95 
354 1 16.529 13.2232 29.7522 0 0 0 0 0 0 5.13221 180.95 
355 1 18.1819 14.8761 31.4051 0 0 0 0 0 0 5.33371 180.95 
356 1 19.8348 13.2232 29.7522 0 0 0 0 0 0 3.47297 180.95 
364 1 11.5703 18.1819 31.4051 0 0 0 0 0 0 5.33496 180.95 
365 1 13.2232 16.529 29.7522 0 0 0 0 0 0 5.13221 180.95 
366 1 14.8761 18.1819 31.4051 0 0 0 0 0 0 5.33372 180.95 
367 1 16.529 16.529 29.7522 0 0 0 0 0 0 5.12423 180.95 
368 1 18.1819 18.1819 31.4051 0 0 0 0 0 0 5.33975 180.95 
369 1 19.8348 16.529 29.7522 0 0 0 0 0 0 3.59138 180.95 
374 1 13.2232 19.8348 29.7522 0 0 0 0 0 0 3.47297 180.95 
375 1 16.529 19.8348 29.7522 0 0 0 0 0 0 3.59138 180.95 
376 1 19.8348 19.8348 29.7522 0 0 0 0 0 0 1.25345 180.95 
378 2 0.230096 0.550845 40.1153 12.0751 27.202 144.777 0 0 0 0.948135 15.999 
379 2 7.62463 0.379905 39.7094 -17.79 19.0338 131.781 0 0 0 0.950457 15.999 
384 2 0.600054 7.90203 40.0016 29.3665 -4.63304 141.687 0 0 0 0.951581 15.999 
385 2 8.14181 7.85094 40.5721 6.77471 -7.04989 160.957 0 0 0 0.953281 15.999 
386 2 7.85819 8.14906 39.4279 -6.68237 7.1211 122.93 0 0 0 0.953353 15.999 
382 2 15.6248 0.356354 40.3192 -18.9771 18.1186 151.528 0 0 0 0.948001 15.999 
383 2 19.3999 8.09797 39.9984 -26.6929 4.6493 140.169 0 0 0 0.942571 15.999 
387 2 15.871 7.62356 39.5403 -7.34506 -17.8532 125.759 0 0 0 0.948229 15.999 
388 2 16.129 8.37644 40.4597 4.52055 17.9036 156.122 0 0 0 0.945979 15.999 
380 2 8.37537 19.6201 40.2906 17.872 -16.4022 150.467 0 0 0 0.946285 15.999 
390 2 0.607829 15.9899 39.9898 29.9107 -1.90536 140.21 0 0 0 0.945356 15.999 
391 2 7.85767 15.6841 39.5004 -6.74426 -16.0688 124.847 0 0 0 0.95102 15.999 
392 2 8.14233 16.3159 40.4996 6.73675 13.3294 157.727 0 0 0 0.948028 15.999 
377 2 19.7699 19.4492 39.8847 -9.22579 -24.2873 135.038 0 0 0 0.934828 15.999 
381 2 16.3752 19.6436 39.6808 16.0966 -15.2089 128.403 0 0 0 0.93653 15.999 
389 2 19.3922 16.0101 40.0102 -26.4633 -1.1457 139.287 0 0 0 0.934077 15.999 
393 2 15.5698 15.7974 40.3789 -21.563 -10.8546 153.203 0 0 0 0.946194 15.999 
394 2 16.4302 16.2026 39.6211 18.043 7.98461 125.906 0 0 0 0.934058 15.999 
398 2 8.43996 0.348874 48.2332 20.8724 17.6832 34.6351 0 0 0 0.951313 15.999 
401 2 0.474611 8.34301 47.8364 23.5109 16.2617 21.4384 0 0 0 0.952543 15.999 
403 2 8.40177 8.41664 48.1862 19.0801 19.7942 33.0325 0 0 0 0.953265 15.999 
404 2 7.59823 7.58336 47.8138 -19.0876 -19.7878 20.659 0 0 0 0.953334 15.999 
395 2 19.7054 0.411848 48.3365 -12.3485 20.7652 37.981 0 0 0 0.942684 15.999 
400 2 15.5689 0.386188 48.1863 -21.5223 19.4457 33.0366 0 0 0 0.94809 15.999 
402 2 19.5254 7.65699 48.1636 -20.4353 -16.3399 32.0365 0 0 0 0.942716 15.999 
405 2 15.5014 8.13496 47.6793 -24.6284 6.41987 16.1964 0 0 0 0.951062 15.999 
406 2 16.4986 7.86504 48.3207 21.5648 -6.32398 37.3771 0 0 0 0.942181 15.999 
396 2 0.29462 19.5882 47.6635 15.1778 -17.3917 15.2667 0 0 0 0.938998 15.999 
397 2 7.56004 19.6511 47.7668 -20.91 -15.1087 18.9727 0 0 0 0.946132 15.999 
408 2 0.280341 16.5237 48.1298 14.529 22.7173 31.0599 0 0 0 0.938354 15.999 
409 2 8.22446 15.8802 48.5522 10.6747 -6.85939 45.2149 0 0 0 0.949188 15.999 
410 2 7.77554 16.1198 47.4478 -10.6218 4.26841 8.33114 0 0 0 0.947055 15.999 
399 2 16.4311 19.6138 47.8137 18.783 -16.8097 20.2789 0 0 0 0.936985 15.999 
407 2 19.7197 15.4763 47.8702 -11.7679 -25.9793 22.3891 0 0 0 0.943412 15.999 
411 2 15.751 16.1274 47.4601 -13.1215 4.54517 8.72318 0 0 0 0.943253 15.999 
412 2 16.249 15.8726 48.5399 10.252 -7.31681 44.8057 0 0 0 0.941494 15.999 
ITEM: TIMESTEP
10
ITEM: NUMBER OF ATOMS
430
ITEM: BOX BOUNDS pp pp pp
0.0000000000000000e+00 2.0000000000000000e+01
0.0000000000000000e+00 2.0000000000000000e+01
0.0000000000000000e+00 5.0000000000000000e+01
ITEM: ATOMS id type x y z fx fy fz vx vy vz q mass 
414 2 0.243996 0.5822 7.98158 10.9171 24.5061 -113.034 13.9985 31.5507 -136.657 0.951721 15.999 
415 2 7.60405 0.401876 7.55975 -16.1301 17.2749 -124.646 -20.7249 22.1347 -152.507 0.954404 15.999 
420 2 0.633924 7.89668 7.86286 26.3883 -4.16193 -116.748 34.0595 -5.3811 -141.651 0.955628 15.999 
421 2 8.14968 7.84274 8.45496 6.34055 -6.6035 -100.332 7.9702 -8.30447 -120.1 0.956262 15.999 
422 2 7.85039 8.15731 7.26694 -6.28185 6.64632 -133.385 -7.89985 8.35608 -163.857 0.956282 15.999 
418 2 15.6029 0.377242 8.19327 -17.3092 16.5282 -107.266 -22.0732 21.0692 -128.904 0.951484 15.999 
419 2 19.3691 8.10334 7.86088 -23.7498 4.17691 -115.682 -30.9269 5.39947 -140.442 0.946322 15.999 
423 2 15.8625 7.60284 7.38449 -6.79861 -16.4595 -129.249 -8.56113 -20.9207 -158.666 0.951581 15.999 
424 2 16.1343 8.39721 8.33945 4.06368 16.5016 -102.837 5.31267 20.9698 -123.208 0.949158 15.999 
416 2 8.39603 19.6011 8.1639 16.2019 -14.703 -107.832 20.8056 -19.0786 -129.673 0.948217 15.999 
426 2 0.642342 15.9877 7.85153 26.9536 -1.80654 -116.157 34.7227 -2.20493 -141.147 0.949466 15.999 
427 2 7.84982 15.6655 7.34266 -6.25872 -14.8493 -130.681 -7.93087 -18.7768 -160.619 0.95337 15.999 
428 2 8.15014 16.3315 8.38076 6.21447 12.2178 -101.477 7.88612 15.6463 -121.759 0.948072 15.999 
413 2 19.7592 19.4211 7.7442 -8.11873 -21.6753 -117.636 -10.6814 -28.1818 -143.338 0.938234 15.999 
417 2 16.3939 19.626 7.53225 14.5033 -13.6915 -123.602 18.7439 -17.7071 -151.367 0.939063 15.999 
425 2 19.3616 16.0089 7.87484 -23.4506 -1.18603 -113.846 -30.6415 -1.34139 -138.233 0.936992 15.999 
429 2 15.5449 15.7849 8.25549 -19.787 -9.96617 -105.252 -25.1369 -12.6218 -126.38 0.94964 15.999 
430 2 16.4511 16.2118 7.47035 16.2541 7.19688 -125.244 21.0184 9.32575 -153.558 0.936796 15.999 
1 1 1.6529 1.6529 18.1819 0 0 0 0 0 0 5.3395 180.95 
2 1 4.9587 1.6529 18.1819 0 0 0 0 0 0 5.33353 180.95 
3 1 8.2645 1.6529 18.1819 0 0 0 0 0 0 5.33472 180.95 
7 1 1.6529 4.9587 18.1819 0 0 0 0 0 0 5.33353 180.95 
8 1 4.9587 4.9587 18.1819 0 0 0 0 0 0 5.35654 180.95 
9 1 8.2645 4.9587 18.1819 0 0 0 0 0 0 5.35708 180.95 
13 1 1.6529 8.2645 18.1819 0 0 0 0 0 0 5.33472 180.95 
14 1 4.9587 8.2645 18.1819 0 0 0 0 0 0 5.35708 180.95 
15 1 8.2645 8.2645 18.1819 0 0 0 0 0 0 5.35753 180.95 
37 1 0 0 19.8348 0 0 0 0 0 0 1.25242 180.95 
39 1 3.3058 0 19.8348 0 0 0 0 0 0 3.5902 180.95 
41 1 6.6116 0 19.8348 0 0 0 0 0 0 3.47273 180.95 
43 1 9.9174 0 19.8348 0 0 0 0 0 0 3.48865 180.95 
50 1 0 3.3058 19.8348 0 0 0 0 0 0 3.5902 180.95 
52 1 3.3058 3.3058 19.8348 0 0 0 0 0 0 5.12402 180.95 
54 1 6.6116 3.3058 19.8348 0 0 0 0 0 0 5.13186 180.95 
56 1 9.9174 3.3058 19.8348 0 0 0 0 0 0 5.13193 180.95 
63 1 0 6.6116 19.8348 0 0 0 0 0 0 3.47273 180.95 
65 1 3.3058 6.6116 19.8348 0 0 0 0 0 0 5.13186 180.95 
67 1 6.6116 6.6116 19.8348 0 0 0 0 0 0 5.14121 180.95 
69 1 9.9174 6.6116 19.8348 0 0 0 0 0 0 5.14118 180.95 
76 1 0 9.9174 19.8348 0 0 0 0 0 0 3.48865 180.95 
78 1 3.3058 9.9174 19.8348 0 0 0 0 0 0 5.13193 180.95 
80 1 6.6116 9.9174 19.8348 0 0 0 0 0 0 5.14118 180.95 
82 1 9.9174 9.9174 19.8348 0 0 0 0 0 0 5.14115 180.95 
4 1 11.5703 1.6529 18.1819 0 0 0 0 0 0 5.33472 180.95 
5 1 14.8761 1.6529 18.1819 0 0 0 0 0 0 5.33353 180.95 
6 1 18.1819 1.6529 18.1819 0 0 0 0 0 0 5.3395 180.95 
10 1 11.5703 4.9587 18.1819 0 0 0 0 0 0 5.35708 180.95 
11 1 14.8761 4.9587 18.1819 0 0 0 0 0 0 5.35654 180.95 
12 1 18.1819 4.9587 18.1819 0 0 0 0 0 0 5.33353 180.95 
16 1 11.5703 8.2645 18.1819 0 0 0 0 0 0 5.35753 180.95 
17 1 14.8761 8.2645 18.1819 0 0 0 0 0 0 5.35708 180.95 
18 1 18.1819 8.2645 18.1819 0 0 0 0 0 0 5.33472 180.95 
45 1 13.2232 0 19.8348 0 0 0 0 0 0 3.47273 180.95 
47 1 16.529 0 19.8348 0 0 0 0 0 0 3.5902 180.95 
49 1 19.8348 0 19.8348 0 0 0 0 0 0 1.25242 180.95 
58 1 13.2232 3.3058 19.8348 0 0 0 0 0 0 5.13186 180.95 
60 1 16.529 3.3058 19.8348 0 0 0 0 0 0 5.12402 180.95 
62 1 19.8348 3.3058 19.8348 0 0 0 0 0 0 3.5902 180.95 
71 1 13.2232 6.6116 19.8348 0 0 0 0 0 0 5.14121 180.95 
73 1 16.529 6.6116 19.8348 0 0 0 0 0 0 5.13186 180.95 
75 1 19.8348 6.6116 19.8348 0 0 0 0 0 0 3.47273 180.95 
84 1 13.2232 9.9174 19.8348 0 0 0 0 0 0 5.14118 180.95 
86 1 16.529 9.9174 19.8348 0 0 0 0 0 0 5.13193 180.95 
88 1 19.8348 9.9174 19.8348 0 0 0 0 0 0 3.48865 180.95 
19 1 1.6529 11.5703 18.1819 0 0 0 0 0 0 5.33472 180.95 