ITEM: TIMESTEP
6000
ITEM: NUMBER OF ATOMS
430
ITEM: BOX BOUNDS pp pp pp
0.0000000000000000e+00 2.0000000000000000e+01
0.0000000000000000e+00 2.0000000000000000e+01
0.0000000000000000e+00 5.0000000000000000e+01
ITEM: ATOMS id type xs ys zs
414 2 0.240046 0.175729 0.996037
386 2 0.520734 0.468828 0.99608
423 2 0.638265 0.253569 0.996289
408 2 0.242499 0.769598 0.995952
380 2 0.630284 0.98703 0.996069
430 2 0.755895 0.748421 0.9964
1 1 0.0757543 0.0757587 0.115169
2 1 0.243528 0.0753784 0.112476
3 1 0.412083 0.075915 0.112343
7 1 0.0753812 0.243522 0.112473
8 1 0.244243 0.244249 0.110226
9 1 0.412403 0.244745 0.110735
13 1 0.0759339 0.412078 0.112348
14 1 0.244749 0.412415 0.110727
15 1 0.412617 0.412636 0.111526
37 1 0.0538389 0.0538378 0.305183
39 1 0.162407 0.0572204 0.244961
41 1 0.330599 0.0599209 0.244197
43 1 0.495869 0.0601259 0.24529
50 1 0.057223 0.162407 0.244966
52 1 0.158779 0.158779 0.188979
54 1 0.329786 0.165684 0.194658
56 1 0.495869 0.166421 0.195318
63 1 0.0599234 0.330599 0.244197
65 1 0.165687 0.329787 0.194659
67 1 0.331794 0.331795 0.202055
69 1 0.495868 0.332363 0.202831
76 1 0.0601312 0.49587 0.245297
78 1 0.166426 0.495871 0.195318
80 1 0.332362 0.495872 0.202829
82 1 0.495867 0.495872 0.20365
4 1 0.579655 0.0759163 0.112341
5 1 0.748218 0.075386 0.11247
6 1 0.915983 0.0757649 0.115164
10 1 0.57933 0.244739 0.110736
11 1 0.747503 0.244236 0.110226
12 1 0.916357 0.243517 0.112466
16 1 0.579105 0.412629 0.111528
17 1 0.746996 0.412399 0.110738
18 1 0.915818 0.412067 0.112346
45 1 0.66114 0.0599204 0.244195
47 1 0.829334 0.0572172 0.244953
49 1 0.9379 0.0538409 0.30517
58 1 0.661953 0.165685 0.19466
60 1 0.832959 0.15878 0.188978
62 1 0.934523 0.162405 0.244951
71 1 0.659944 0.331794 0.202057
73 1 0.826053 0.329785 0.19466
75 1 0.931821 0.330599 0.244193
84 1 0.659374 0.49587 0.202833
86 1 0.825318 0.495869 0.19532
88 1 0.931612 0.49587 0.2453
19 1 0.0759467 0.579659 0.112347
20 1 0.244756 0.57934 0.11072
21 1 0.412616 0.579124 0.111518
25 1 0.075408 0.748219 0.112472
26 1 0.244257 0.747495 0.110214
27 1 0.412398 0.746998 0.110716
31 1 0.0757681 0.915983 0.115169
32 1 0.243535 0.916342 0.112467
33 1 0.41208 0.915802 0.11233
89 1 0.0599237 0.661141 0.244193
91 1 0.165692 0.661954 0.194657
93 1 0.331795 0.659948 0.202052
95 1 0.495866 0.65938 0.20283
102 1 0.0572187 0.829336 0.24495
104 1 0.158786 0.832959 0.188976
106 1 0.329789 0.826052 0.194655
108 1 0.495866 0.825321 0.195314
115 1 0.0538409 0.9379 0.305173
116 1 0.162407 0.934521 0.244955
117 1 0.3306 0.931819 0.244188
118 1 0.495869 0.931607 0.245303
22 1 0.579098 0.579121 0.111525
23 1 0.746984 0.579333 0.110742
24 1 0.91582 0.579654 0.112356
28 1 0.579316 0.747002 0.110726
29 1 0.747481 0.747504 0.110235
30 1 0.91636 0.748223 0.112483
34 1 0.579647 0.915811 0.112338
35 1 0.748206 0.916363 0.112476
36 1 0.915984 0.915994 0.115172
97 1 0.659941 0.659948 0.202056
99 1 0.82605 0.661956 0.194663
101 1 0.931821 0.661142 0.244191
110 1 0.661949 0.826055 0.194659
112 1 0.832961 0.832966 0.18898
114 1 0.934518 0.829333 0.24497
119 1 0.66114 0.931819 0.24419
120 1 0.829332 0.934517 0.244969
121 1 0.937902 0.937902 0.305181
38 1 0.0967681 0.0967673 0.341653
40 1 0.253714 0.0901983 0.308859
42 1 0.414963 0.0901397 0.31056
51 1 0.0901998 0.253714 0.30886
53 1 0.25543 0.255429 0.294156
55 1 0.415486 0.256731 0.295848
64 1 0.0901411 0.414963 0.310562
66 1 0.256732 0.415487 0.295848
68 1 0.415906 0.415907 0.29777
122 1 0.0551832 0.055183 0.434231
123 1 0.0920519 0.0920514 0.49587
124 1 0.18268 0.0566 0.421255
125 1 0.259411 0.092951 0.49587
126 1 0.336183 0.0574073 0.414994
127 1 0.417207 0.093169 0.49587
128 1 0.49587 0.0575656 0.41582
135 1 0.0566005 0.18268 0.421256
136 1 0.0929516 0.259411 0.49587
137 1 0.183379 0.183379 0.398717
138 1 0.260454 0.260454 0.49587
139 1 0.337518 0.184967 0.392786
140 1 0.417455 0.260466 0.49587
141 1 0.49587 0.185457 0.393764
148 1 0.057408 0.336183 0.414995
149 1 0.0931696 0.417207 0.49587
150 1 0.184967 0.337518 0.392785
151 1 0.260467 0.417455 0.49587
152 1 0.339094 0.339094 0.395357
153 1 0.417493 0.417493 0.49587
154 1 0.49587 0.3394 0.395847
161 1 0.0575657 0.49587 0.415819
163 1 0.185458 0.49587 0.393765
165 1 0.3394 0.49587 0.395847
167 1 0.49587 0.49587 0.396232
207 1 0.0551831 0.0551829 0.55751
208 1 0.0967665 0.0967651 0.650089
209 1 0.18268 0.0566004 0.570484
210 1 0.253715 0.0901984 0.682882
211 1 0.336183 0.0574074 0.576745
212 1 0.414962 0.0901393 0.681179
213 1 0.49587 0.0575655 0.57592
220 1 0.056601 0.18268 0.570483
221 1 0.0901994 0.253714 0.68288
222 1 0.183379 0.183378 0.593025
223 1 0.25543 0.255429 0.697583
224 1 0.337518 0.184967 0.598954
225 1 0.415486 0.256731 0.695893
226 1 0.49587 0.185457 0.597977
233 1 0.057408 0.336183 0.576744
234 1 0.0901411 0.414963 0.681179
235 1 0.184967 0.337518 0.598954
236 1 0.256732 0.415486 0.695893
237 1 0.339094 0.339094 0.596383
238 1 0.415906 0.415907 0.693971
239 1 0.49587 0.3394 0.595894
246 1 0.0575654 0.49587 0.575923
248 1 0.185458 0.49587 0.597976
250 1 0.3394 0.49587 0.595894
252 1 0.49587 0.49587 0.595508
44 1 0.576776 0.0901399 0.31056
46 1 0.738026 0.0901989 0.308859
48 1 0.894976 0.0967645 0.341649
57 1 0.576253 0.256731 0.295848
59 1 0.73631 0.255429 0.294158
61 1 0.901541 0.253713 0.308857
70 1 0.575832 0.415907 0.297771
72 1 0.735008 0.415486 0.295849
74 1 0.9016 0.414962 0.310562
129 1 0.574533 0.0931691 0.49587
130 1 0.655556 0.0574076 0.414995
131 1 0.732329 0.0929512 0.49587
132 1 0.80906 0.0566006 0.421256
133 1 0.899689 0.0920514 0.49587
134 1 0.936557 0.055183 0.434229
142 1 0.574285 0.260466 0.49587
143 1 0.654221 0.184967 0.392786
144 1 0.731286 0.260454 0.49587
145 1 0.808361 0.183378 0.398716
146 1 0.898789 0.259411 0.49587
147 1 0.93514 0.18268 0.421255
155 1 0.574247 0.417493 0.49587
156 1 0.652646 0.339094 0.395357
157 1 0.731273 0.417455 0.49587
158 1 0.806773 0.337518 0.392787
159 1 0.898571 0.417207 0.49587
160 1 0.934333 0.336183 0.414995
169 1 0.65234 0.49587 0.395847
171 1 0.806282 0.49587 0.393764
173 1 0.934174 0.49587 0.415821
214 1 0.576777 0.0901393 0.68118
215 1 0.655556 0.0574075 0.576745
216 1 0.738026 0.0901983 0.682882
217 1 0.80906 0.0566002 0.570485
218 1 0.894972 0.096768 0.650089
219 1 0.936557 0.0551831 0.55751
227 1 0.576253 0.256731 0.695892
228 1 0.654222 0.184967 0.598954
229 1 0.73631 0.255429 0.697583
230 1 0.808361 0.183379 0.593024
231 1 0.901541 0.253712 0.682884
232 1 0.93514 0.18268 0.570485
240 1 0.575832 0.415907 0.69397
241 1 0.652646 0.339094 0.596383
242 1 0.735008 0.415486 0.695892
243 1 0.806773 0.337518 0.598954
244 1 0.9016 0.414963 0.68118
245 1 0.934333 0.336183 0.576746
254 1 0.65234 0.49587 0.595894
256 1 0.806283 0.49587 0.597976
258 1 0.934174 0.49587 0.575918
77 1 0.0901414 0.576778 0.310561
79 1 0.256732 0.576254 0.295847
81 1 0.415906 0.575834 0.297769
90 1 0.0902002 0.738027 0.308858
92 1 0.25543 0.736311 0.294156
94 1 0.415486 0.735009 0.295847
103 1 0.0967668 0.894974 0.341649
105 1 0.253715 0.901541 0.308857
107 1 0.414961 0.9016 0.310561
162 1 0.0931696 0.574533 0.49587
164 1 0.260467 0.574285 0.49587
166 1 0.417493 0.574247 0.49587
174 1 0.0574081 0.655557 0.414995
175 1 0.0929517 0.732329 0.49587
176 1 0.184967 0.654222 0.392786
177 1 0.260454 0.731286 0.49587
178 1 0.339094 0.652647 0.395356
179 1 0.417455 0.731274 0.49587
180 1 0.49587 0.65234 0.395847
187 1 0.0566011 0.80906 0.421257
188 1 0.0920516 0.899689 0.49587
189 1 0.183379 0.808361 0.398715
190 1 0.259411 0.898789 0.49587
191 1 0.337518 0.806773 0.392786
192 1 0.417207 0.898571 0.49587
193 1 0.49587 0.806282 0.393763
200 1 0.0551831 0.936557 0.434228
201 1 0.182681 0.935139 0.421256
202 1 0.336183 0.934332 0.414996
203 1 0.49587 0.934174 0.415819
247 1 0.0901411 0.576779 0.68118
249 1 0.256732 0.576255 0.695894
251 1 0.415906 0.575834 0.693971
259 1 0.057408 0.655557 0.576745
260 1 0.0902 0.738025 0.682881
261 1 0.184967 0.654222 0.598955
262 1 0.25543 0.736311 0.697583
263 1 0.339094 0.652647 0.596384
264 1 0.415486 0.735009 0.695894
265 1 0.49587 0.652341 0.595894
272 1 0.0566008 0.80906 0.570484
273 1 0.0967654 0.894976 0.650091
274 1 0.183379 0.808362 0.593025
275 1 0.253714 0.901541 0.682882
276 1 0.337518 0.806773 0.598955
277 1 0.414963 0.9016 0.681181
278 1 0.49587 0.806283 0.597977
285 1 0.0551831 0.936557 0.557512
286 1 0.182681 0.935139 0.570484
287 1 0.336183 0.934332 0.576746
288 1 0.49587 0.934174 0.57592
83 1 0.575832 0.575834 0.29777
85 1 0.735008 0.576254 0.295849
87 1 0.9016 0.576778 0.310561
96 1 0.576252 0.735009 0.295847
98 1 0.73631 0.736311 0.294157
100 1 0.901541 0.738025 0.308861
109 1 0.576777 0.9016 0.310561
111 1 0.738024 0.901541 0.308861
113 1 0.894974 0.894974 0.341653
168 1 0.574247 0.574247 0.49587
170 1 0.731273 0.574285 0.49587
172 1 0.898571 0.574534 0.49587
181 1 0.574284 0.731274 0.49587
182 1 0.652646 0.652646 0.395357
183 1 0.731285 0.731286 0.49587
184 1 0.806773 0.654222 0.392786
185 1 0.898789 0.732329 0.49587
186 1 0.934333 0.655557 0.414995
194 1 0.574533 0.898571 0.49587
195 1 0.654221 0.806773 0.392786
196 1 0.732329 0.898789 0.49587
197 1 0.808361 0.808361 0.398717
198 1 0.899689 0.899688 0.49587
199 1 0.93514 0.80906 0.421255
204 1 0.655556 0.934332 0.414995
205 1 0.80906 0.93514 0.421256
206 1 0.936557 0.936557 0.43423
253 1 0.575832 0.575834 0.69397
255 1 0.735008 0.576254 0.695892
257 1 0.9016 0.576777 0.68118
266 1 0.576252 0.735009 0.695893
267 1 0.652646 0.652647 0.596383
268 1 0.73631 0.736311 0.697583
269 1 0.806773 0.654222 0.598954
270 1 0.901541 0.738026 0.682881
271 1 0.934333 0.655557 0.576746
279 1 0.576775 0.9016 0.681181
280 1 0.654221 0.806773 0.598955
281 1 0.738025 0.901541 0.682881
282 1 0.808361 0.808362 0.593025
283 1 0.894974 0.894974 0.650089
284 1 0.935139 0.80906 0.570484
289 1 0.655556 0.934332 0.576746
290 1 0.80906 0.935139 0.570484
291 1 0.936557 0.936557 0.557511
292 1 0.0538393 0.0538387 0.686562
293 1 0.0757547 0.0757585 0.876571
294 1 0.162409 0.0572216 0.746776
295 1 0.243528 0.0753789 0.879265
296 1 0.330599 0.0599198 0.74755
297 1 0.412084 0.0759151 0.879401
298 1 0.495869 0.0601292 0.74644
305 1 0.0572246 0.162408 0.746773
306 1 0.0753826 0.243522 0.879269
307 1 0.158779 0.158778 0.802763
308 1 0.244244 0.244249 0.881514
309 1 0.329786 0.165685 0.797083
310 1 0.412402 0.244745 0.881009
311 1 0.495868 0.166419 0.796422
318 1 0.0599236 0.330598 0.747546
319 1 0.0759356 0.412078 0.879394
320 1 0.165688 0.329786 0.797082
321 1 0.24475 0.412415 0.881011
322 1 0.331794 0.331795 0.789685
323 1 0.412616 0.412636 0.880216
324 1 0.495867 0.332362 0.78891
331 1 0.0601327 0.49587 0.746439
333 1 0.166425 0.495871 0.796423
335 1 0.332362 0.495872 0.788911
337 1 0.495866 0.495872 0.788089
299 1 0.579655 0.0759162 0.879398
300 1 0.66114 0.0599194 0.74755
301 1 0.748217 0.0753861 0.87927
302 1 0.829335 0.0572176 0.746787
303 1 0.915982 0.0757643 0.876576
304 1 0.937901 0.0538396 0.686563
312 1 0.57933 0.244738 0.881006
313 1 0.661951 0.165686 0.797081
314 1 0.747502 0.244234 0.881515
315 1 0.832957 0.15878 0.802764
316 1 0.916357 0.243517 0.879272
317 1 0.934525 0.162402 0.746795
325 1 0.579104 0.412628 0.880209
326 1 0.659944 0.331793 0.789683
327 1 0.746995 0.412398 0.881003
328 1 0.826053 0.329784 0.79708
329 1 0.915819 0.412067 0.879392
330 1 0.93182 0.330599 0.747544
339 1 0.659374 0.495871 0.788908
341 1 0.825316 0.495869 0.79642
343 1 0.931614 0.49587 0.746449
332 1 0.0759476 0.57966 0.879395
334 1 0.244756 0.57934 0.881019
336 1 0.412615 0.579124 0.880223
344 1 0.0599221 0.661142 0.747555
345 1 0.0754086 0.748219 0.879268
346 1 0.165693 0.661955 0.797083
347 1 0.244257 0.747495 0.881525
348 1 0.331795 0.659948 0.789688
349 1 0.412397 0.746998 0.881024
350 1 0.495866 0.65938 0.788911
357 1 0.0572221 0.829333 0.746779
358 1 0.0757689 0.915983 0.876575
359 1 0.158784 0.832959 0.802764
360 1 0.243536 0.916342 0.879273
361 1 0.329788 0.826054 0.797085
362 1 0.41208 0.915803 0.879409
363 1 0.495866 0.825319 0.796427
370 1 0.0538414 0.9379 0.686569
371 1 0.162407 0.934522 0.74679
372 1 0.330599 0.931817 0.747544
373 1 0.495869 0.931611 0.74645
338 1 0.579097 0.579122 0.880214
340 1 0.746984 0.579334 0.880997
342 1 0.91582 0.579654 0.879385
351 1 0.579316 0.747003 0.881013
352 1 0.659941 0.659948 0.789684
353 1 0.747481 0.747505 0.881507
354 1 0.826052 0.661956 0.797079
355 1 0.91636 0.748223 0.879257
356 1 0.931819 0.661142 0.74754
364 1 0.579647 0.915812 0.879403
365 1 0.661949 0.826056 0.797081
366 1 0.748205 0.916362 0.879267
367 1 0.832959 0.832964 0.802761
368 1 0.915984 0.915994 0.876569
369 1 0.934521 0.829335 0.746781
374 1 0.66114 0.931818 0.747542
375 1 0.829332 0.934519 0.746776
376 1 0.937901 0.937901 0.686562
420 2 0.0964816 0.37254 0.99563
401 2 0.106085 0.510023 0.996004
421 2 0.403007 0.381396 0.995985
422 2 0.249268 0.363598 0.995978
379 2 0.361165 0.106565 0.995857
384 2 0.142665 0.257052 0.996024
398 2 0.472211 0.202797 0.995825
404 2 0.342596 0.259319 0.995835
413 2 0.0958223 0.127816 0.995659
416 2 0.484422 0.0432312 0.995782
415 2 0.22514 0.0456421 0.995809
396 2 0.0955623 0.987587 0.99604
378 2 0.997937 0.234746 0.995903
400 2 0.594603 0.123572 0.995827
417 2 0.771964 0.0338297 0.995926
383 2 0.981223 0.436451 0.996022
402 2 0.898041 0.332103 0.995645
418 2 0.731445 0.154182 0.99566
385 2 0.53033 0.329199 0.995537
382 2 0.871946 0.163133 0.995994
387 2 0.773818 0.28746 0.995942
395 2 0.971137 0.0617085 0.995768
405 2 0.657484 0.395137 0.995752
424 2 0.785542 0.439604 0.995817
427 2 0.238977 0.497166 0.995726
397 2 0.352394 0.961458 0.996008
407 2 0.00664979 0.74436 0.995947
390 2 0.387125 0.676379 0.995894
426 2 0.127403 0.661581 0.995882
428 2 0.379913 0.817324 0.995868
391 2 0.259914 0.629865 0.995942
410 2 0.222393 0.910688 0.995751
425 2 0.112967 0.830134 0.995746
403 2 0.380519 0.52279 0.995802
409 2 0.509429 0.608428 0.995725
392 2 0.492479 0.905134 0.995795
406 2 0.885503 0.528406 0.995989
377 2 0.877973 0.95982 0.995977
393 2 0.643295 0.537799 0.996026
389 2 0.992548 0.89465 0.995937
419 2 0.00244403 0.598876 0.995751
429 2 0.515722 0.75387 0.995899
388 2 0.765325 0.597302 0.995628
381 2 0.751455 0.892561 0.995701
394 2 0.638507 0.682319 0.995624
399 2 0.877019 0.815697 0.995554
411 2 0.623973 0.84166 0.995849
412 2 0.882535 0.675403 0.995922
