LAMMPS data file via write_data, version 29 Oct 2020, timestep = 1

682 atoms
2 atom types
192 bonds
1 bond types
0 angles
1 angle types

5 extra bond per atom
1 extra angle per atom
1 extra special per atom

0.0 23.1406 xlo xhi
0.0 23.1406 ylo yhi
0.0 50.0 zlo zhi

Masses

1 180.94788
2 15.999

Atoms # full

1 0 1 0.0 1.4799875528345918e-20 2.1200821694355525e-19 3.523897371080992e-05 0 0 0
2 0 1 0.0 1.6529 1.6529 1.6528699845809112 0 0 0
3 0 1 0.0 3.3058 2.725720825822083e-19 3.523897371081003e-05 0 0 0
4 0 1 0.0 4.9587 1.6529 1.6528699845809112 0 0 0
15 0 1 0.0 2.0423828229117365e-19 3.3058 3.523897371080948e-05 0 0 0
16 0 1 0.0 1.6529 4.9587 1.6528699845809112 0 0 0
17 0 1 0.0 3.3058 3.3058 3.523897371080924e-05 0 0 0
18 0 1 0.0 4.9587 4.9587 1.6528699845809112 0 0 0
99 0 1 0.0 4.040366019238435e-19 6.572994719026629e-19 3.305785424514077 0 0 0
100 0 1 0.0 1.6529 1.6529 4.958702518648578 0 0 0
101 0 1 0.0 3.3058 4.923733589836582e-19 3.305785424514077 0 0 0
102 0 1 0.0 4.9587 1.6529 4.958702518648578 0 0 0
113 0 1 0.0 3.999666361535484e-19 3.3058 3.305785424514077 0 0 0
114 0 1 0.0 1.6529 4.9587 4.958702518648578 0 0 0
115 0 1 0.0 3.3058 3.3058 3.305785424514077 0 0 0
116 0 1 0.0 4.9587 4.9587 4.958702518648578 0 0 0
5 0 1 0.0 6.6116 2.4715792132337676e-19 3.523897371081029e-05 0 0 0
6 0 1 0.0 8.2645 1.6529 1.6528699845809112 0 0 0
7 0 1 0.0 9.9174 2.6195779685172273e-19 3.523897371080982e-05 0 0 0
19 0 1 0.0 6.6116 3.3058 3.523897371080934e-05 0 0 0
20 0 1 0.0 8.2645 4.9587 1.6528699845809112 0 0 0
21 0 1 0.0 9.9174 3.3058 3.523897371080939e-05 0 0 0
103 0 1 0.0 6.6116 9.860417070760467e-19 3.305785424514077 0 0 0
104 0 1 0.0 8.2645 1.6529 4.958702518648578 0 0 0
105 0 1 0.0 9.9174 1.0197114239030335e-18 3.305785424514077 0 0 0
117 0 1 0.0 6.6116 3.3058 3.305785424514077 0 0 0
118 0 1 0.0 8.2645 4.9587 4.958702518648578 0 0 0
119 0 1 0.0 9.9174 3.3058 3.305785424514077 0 0 0
8 0 1 0.0 11.5703 1.6529 1.6528699845809112 0 0 0
9 0 1 0.0 13.2232 2.0867824494967743e-19 3.5238973710810126e-05 0 0 0
10 0 1 0.0 14.876100000000001 1.6529 1.6528699845809112 0 0 0
11 0 1 0.0 16.529 9.175920072814886e-20 3.523897371080959e-05 0 0 0
22 0 1 0.0 11.5703 4.9587 1.6528699845809112 0 0 0
23 0 1 0.0 13.2232 3.3058 3.523897371080888e-05 0 0 0
24 0 1 0.0 14.876100000000001 4.9587 1.6528699845809112 0 0 0
25 0 1 0.0 16.529 3.3058 3.5238973710809184e-05 0 0 0
106 0 1 0.0 11.5703 1.6529 4.958702518648578 0 0 0
107 0 1 0.0 13.2232 6.1419483442635545e-19 3.305785424514077 0 0 0
108 0 1 0.0 14.876100000000001 1.6529 4.958702518648578 0 0 0
109 0 1 0.0 16.529 1.1629002377640144e-18 3.305785424514077 0 0 0
120 0 1 0.0 11.5703 4.9587 4.958702518648578 0 0 0
121 0 1 0.0 13.2232 3.3058 3.305785424514077 0 0 0
122 0 1 0.0 14.876100000000001 4.9587 4.958702518648578 0 0 0
123 0 1 0.0 16.529 3.3058 3.305785424514077 0 0 0
12 0 1 0.0 18.1819 1.6529 1.6528699845809112 0 0 0
13 0 1 0.0 19.8348 9.495045143654427e-20 3.523897371081033e-05 0 0 0
14 0 1 0.0 21.4877 1.6529 1.6528699845809112 0 0 0
26 0 1 0.0 18.1819 4.9587 1.6528699845809112 0 0 0
27 0 1 0.0 19.8348 3.3058 3.523897371080873e-05 0 0 0
28 0 1 0.0 21.4877 4.9587 1.6528699845809112 0 0 0
110 0 1 0.0 18.1819 1.6529 4.958702518648578 0 0 0
111 0 1 0.0 19.8348 1.131265485697941e-19 3.305785424514077 0 0 0
112 0 1 0.0 21.4877 1.6529 4.958702518648578 0 0 0
124 0 1 0.0 18.1819 4.9587 4.958702518648578 0 0 0
125 0 1 0.0 19.8348 3.3058 3.305785424514077 0 0 0
126 0 1 0.0 21.4877 4.9587 4.958702518648578 0 0 0
29 0 1 0.0 5.919950211338367e-20 6.6116 3.523897371080982e-05 0 0 0
30 0 1 0.0 1.6529 8.2645 1.6528699845809112 0 0 0
31 0 1 0.0 3.3058 6.6116 3.523897371081012e-05 0 0 0
32 0 1 0.0 4.9587 8.2645 1.6528699845809112 0 0 0
43 0 1 0.0 0.0 9.9174 3.5238973710810214e-05 0 0 0
45 0 1 0.0 3.3058 9.9174 3.5238973710809496e-05 0 0 0
127 0 1 0.0 5.586953011950584e-19 6.6116 3.305785424514077 0 0 0
128 0 1 0.0 1.6529 8.2645 4.958702518648578 0 0 0
129 0 1 0.0 3.3058 6.6116 3.305785424514077 0 0 0
130 0 1 0.0 4.9587 8.2645 4.958702518648578 0 0 0
141 0 1 0.0 7.662635554801099e-19 9.9174 3.305785424514077 0 0 0
143 0 1 0.0 3.3058 9.9174 3.305785424514077 0 0 0
33 0 1 0.0 6.6116 6.6116 3.523897371081028e-05 0 0 0
34 0 1 0.0 8.2645 8.2645 1.6528699845809112 0 0 0
35 0 1 0.0 9.9174 6.6116 3.5238973710809875e-05 0 0 0
47 0 1 0.0 6.6116 9.9174 3.5238973710809726e-05 0 0 0
49 0 1 0.0 9.9174 9.9174 3.5238973710809685e-05 0 0 0
131 0 1 0.0 6.6116 6.6116 3.305785424514077 0 0 0
132 0 1 0.0 8.2645 8.2645 4.958702518648578 0 0 0
133 0 1 0.0 9.9174 6.6116 3.305785424514077 0 0 0
145 0 1 0.0 6.6116 9.9174 3.305785424514077 0 0 0
147 0 1 0.0 9.9174 9.9174 3.305785424514077 0 0 0
36 0 1 0.0 11.5703 8.2645 1.6528699845809112 0 0 0
37 0 1 0.0 13.2232 6.6116 3.5238973710810194e-05 0 0 0
38 0 1 0.0 14.876100000000001 8.2645 1.6528699845809112 0 0 0
39 0 1 0.0 16.529 6.6116 3.523897371080962e-05 0 0 0
51 0 1 0.0 13.2232 9.9174 3.523897371080932e-05 0 0 0
53 0 1 0.0 16.529 9.9174 3.523897371080969e-05 0 0 0
134 0 1 0.0 11.5703 8.2645 4.958702518648578 0 0 0
135 0 1 0.0 13.2232 6.6116 3.305785424514077 0 0 0
136 0 1 0.0 14.876100000000001 8.2645 4.958702518648578 0 0 0
137 0 1 0.0 16.529 6.6116 3.305785424514077 0 0 0
149 0 1 0.0 13.2232 9.9174 3.305785424514077 0 0 0
151 0 1 0.0 16.529 9.9174 3.305785424514077 0 0 0
40 0 1 0.0 18.1819 8.2645 1.6528699845809112 0 0 0
41 0 1 0.0 19.8348 6.6116 3.5238973710810587e-05 0 0 0
42 0 1 0.0 21.4877 8.2645 1.6528699845809112 0 0 0
55 0 1 0.0 19.8348 9.9174 3.523897371080931e-05 0 0 0
138 0 1 0.0 18.1819 8.2645 4.958702518648578 0 0 0
139 0 1 0.0 19.8348 6.6116 3.305785424514077 0 0 0
140 0 1 0.0 21.4877 8.2645 4.958702518648578 0 0 0
153 0 1 0.0 19.8348 9.9174 3.305785424514077 0 0 0
44 0 1 0.0 1.6529 11.5703 1.6528699845809112 0 0 0
46 0 1 0.0 4.9587 11.5703 1.6528699845809112 0 0 0
57 0 1 0.0 1.8943840676282773e-19 13.2232 3.52389737108094e-05 0 0 0
58 0 1 0.0 1.6529 14.876100000000001 1.6528699845809112 0 0 0
59 0 1 0.0 3.3058 13.2232 3.523897371080952e-05 0 0 0
60 0 1 0.0 4.9587 14.876100000000001 1.6528699845809112 0 0 0
71 0 1 0.0 3.9959663926533977e-20 16.529 3.523897371081012e-05 0 0 0
73 0 1 0.0 3.3058 16.529 3.5238973710809557e-05 0 0 0
142 0 1 0.0 1.6529 11.5703 4.958702518648578 0 0 0
144 0 1 0.0 4.9587 11.5703 4.958702518648578 0 0 0
155 0 1 0.0 0.0 13.2232 3.305785424514077 0 0 0
156 0 1 0.0 1.6529 14.876100000000001 4.958702518648578 0 0 0
157 0 1 0.0 3.3058 13.2232 3.305785424514077 0 0 0
158 0 1 0.0 4.9587 14.876100000000001 4.958702518648578 0 0 0
169 0 1 0.0 5.446354194431297e-19 16.529 3.305785424514077 0 0 0
171 0 1 0.0 3.3058 16.529 3.305785424514077 0 0 0
48 0 1 0.0 8.2645 11.5703 1.6528699845809112 0 0 0
61 0 1 0.0 6.6116 13.2232 3.523897371080997e-05 0 0 0
62 0 1 0.0 8.2645 14.876100000000001 1.6528699845809112 0 0 0
63 0 1 0.0 9.9174 13.2232 3.523897371080936e-05 0 0 0
75 0 1 0.0 6.6116 16.529 3.523897371080985e-05 0 0 0
77 0 1 0.0 9.9174 16.529 3.52389737108095e-05 0 0 0
146 0 1 0.0 8.2645 11.5703 4.958702518648578 0 0 0
159 0 1 0.0 6.6116 13.2232 3.305785424514077 0 0 0
160 0 1 0.0 8.2645 14.876100000000001 4.958702518648578 0 0 0
161 0 1 0.0 9.9174 13.2232 3.305785424514077 0 0 0
173 0 1 0.0 6.6116 16.529 3.305785424514077 0 0 0
175 0 1 0.0 9.9174 16.529 3.305785424514077 0 0 0
50 0 1 0.0 11.5703 11.5703 1.6528699845809112 0 0 0
52 0 1 0.0 14.876100000000001 11.5703 1.6528699845809112 0 0 0
64 0 1 0.0 11.5703 14.876100000000001 1.6528699845809112 0 0 0
65 0 1 0.0 13.2232 13.2232 3.523897371081017e-05 0 0 0
66 0 1 0.0 14.876100000000001 14.876100000000001 1.6528699845809112 0 0 0
67 0 1 0.0 16.529 13.2232 3.5238973710808974e-05 0 0 0
79 0 1 0.0 13.2232 16.529 3.523897371080934e-05 0 0 0
81 0 1 0.0 16.529 16.529 3.523897371080962e-05 0 0 0
148 0 1 0.0 11.5703 11.5703 4.958702518648578 0 0 0
150 0 1 0.0 14.876100000000001 11.5703 4.958702518648578 0 0 0
162 0 1 0.0 11.5703 14.876100000000001 4.958702518648578 0 0 0
163 0 1 0.0 13.2232 13.2232 3.305785424514077 0 0 0
164 0 1 0.0 14.876100000000001 14.876100000000001 4.958702518648578 0 0 0
165 0 1 0.0 16.529 13.2232 3.305785424514077 0 0 0
177 0 1 0.0 13.2232 16.529 3.305785424514077 0 0 0
179 0 1 0.0 16.529 16.529 3.305785424514077 0 0 0
54 0 1 0.0 18.1819 11.5703 1.6528699845809112 0 0 0
56 0 1 0.0 21.4877 11.5703 1.6528699845809112 0 0 0
68 0 1 0.0 18.1819 14.876100000000001 1.6528699845809112 0 0 0
69 0 1 0.0 19.8348 13.2232 3.523897371081016e-05 0 0 0
70 0 1 0.0 21.4877 14.876100000000001 1.6528699845809112 0 0 0
83 0 1 0.0 19.8348 16.529 3.523897371080942e-05 0 0 0
152 0 1 0.0 18.1819 11.5703 4.958702518648578 0 0 0
154 0 1 0.0 21.4877 11.5703 4.958702518648578 0 0 0
166 0 1 0.0 18.1819 14.876100000000001 4.958702518648578 0 0 0
167 0 1 0.0 19.8348 13.2232 3.305785424514077 0 0 0
168 0 1 0.0 21.4877 14.876100000000001 4.958702518648578 0 0 0
181 0 1 0.0 19.8348 16.529 3.305785424514077 0 0 0
72 0 1 0.0 1.6529 18.1819 1.6528699845809112 0 0 0
74 0 1 0.0 4.9587 18.1819 1.6528699845809112 0 0 0
85 0 1 0.0 1.746385312344818e-19 19.8348 3.5238973710809685e-05 0 0 0
86 0 1 0.0 1.6529 21.4877 1.6528699845809112 0 0 0
87 0 1 0.0 3.3058 19.8348 3.523897371080957e-05 0 0 0
88 0 1 0.0 4.9587 21.4877 1.6528699845809112 0 0 0
170 0 1 0.0 1.6529 18.1819 4.958702518648578 0 0 0
172 0 1 0.0 4.9587 18.1819 4.958702518648578 0 0 0
183 0 1 0.0 0.0 19.8348 3.305785424514077 0 0 0
184 0 1 0.0 1.6529 21.4877 4.958702518648578 0 0 0
185 0 1 0.0 3.3058 19.8348 3.305785424514077 0 0 0
186 0 1 0.0 4.9587 21.4877 4.958702518648578 0 0 0
76 0 1 0.0 8.2645 18.1819 1.6528699845809112 0 0 0
89 0 1 0.0 6.6116 19.8348 3.5238973710809855e-05 0 0 0
90 0 1 0.0 8.2645 21.4877 1.6528699845809112 0 0 0
91 0 1 0.0 9.9174 19.8348 3.52389737108096e-05 0 0 0
174 0 1 0.0 8.2645 18.1819 4.958702518648578 0 0 0
187 0 1 0.0 6.6116 19.8348 3.305785424514077 0 0 0
188 0 1 0.0 8.2645 21.4877 4.958702518648578 0 0 0
189 0 1 0.0 9.9174 19.8348 3.305785424514077 0 0 0
78 0 1 0.0 11.5703 18.1819 1.6528699845809112 0 0 0
80 0 1 0.0 14.876100000000001 18.1819 1.6528699845809112 0 0 0
92 0 1 0.0 11.5703 21.4877 1.6528699845809112 0 0 0
93 0 1 0.0 13.2232 19.8348 3.5238973710809414e-05 0 0 0
94 0 1 0.0 14.876100000000001 21.4877 1.6528699845809112 0 0 0
95 0 1 0.0 16.529 19.8348 3.523897371080944e-05 0 0 0
176 0 1 0.0 11.5703 18.1819 4.958702518648578 0 0 0
178 0 1 0.0 14.876100000000001 18.1819 4.958702518648578 0 0 0
190 0 1 0.0 11.5703 21.4877 4.958702518648578 0 0 0
191 0 1 0.0 13.2232 19.8348 3.305785424514077 0 0 0
192 0 1 0.0 14.876100000000001 21.4877 4.958702518648578 0 0 0
193 0 1 0.0 16.529 19.8348 3.305785424514077 0 0 0
82 0 1 0.0 18.1819 18.1819 1.6528699845809112 0 0 0
84 0 1 0.0 21.4877 18.1819 1.6528699845809112 0 0 0
96 0 1 0.0 18.1819 21.4877 1.6528699845809112 0 0 0
97 0 1 0.0 19.8348 19.8348 3.523897371080979e-05 0 0 0
98 0 1 0.0 21.4877 21.4877 1.6528699845809112 0 0 0
180 0 1 0.0 18.1819 18.1819 4.958702518648578 0 0 0
182 0 1 0.0 21.4877 18.1819 4.958702518648578 0 0 0
194 0 1 0.0 18.1819 21.4877 4.958702518648578 0 0 0
195 0 1 0.0 19.8348 19.8348 3.305785424514077 0 0 0
196 0 1 0.0 21.4877 21.4877 4.958702518648578 0 0 0
197 0 1 0.0 1.7907849389298556e-19 0.0 6.611600490831407 0 0 0
198 0 1 0.0 1.6529 1.6529 8.264499509168592 0 0 0
199 0 1 0.0 3.3058 0.0 6.611600490831407 0 0 0
200 0 1 0.0 4.9587 1.6529 8.264499509168592 0 0 0
211 0 1 0.0 4.987558053052574e-19 3.3058 6.611600490831407 0 0 0
212 0 1 0.0 1.6529 4.9587 8.264499509168592 0 0 0
213 0 1 0.0 3.3058 3.3058 6.611600490831407 0 0 0
214 0 1 0.0 4.9587 4.9587 8.264499509168592 0 0 0
295 0 1 0.0 3.1079738609526427e-20 0.0 9.917397481351422 0 0 0
297 0 1 0.0 3.3058 0.0 9.917397481351422 0 0 0
309 0 1 0.0 2.460479306587508e-19 3.3058 9.917397481351422 0 0 0
311 0 1 0.0 3.3058 3.3058 9.917397481351422 0 0 0
201 0 1 0.0 6.6116 3.6703691310297874e-19 6.611600490831407 0 0 0
202 0 1 0.0 8.2645 1.6529 8.264499509168592 0 0 0
203 0 1 0.0 9.9174 0.0 6.611600490831407 0 0 0
215 0 1 0.0 6.6116 3.3058 6.611600490831407 0 0 0
216 0 1 0.0 8.2645 4.9587 8.264499509168592 0 0 0
217 0 1 0.0 9.9174 3.3058 6.611600490831407 0 0 0
299 0 1 0.0 6.6116 0.0 9.917397481351422 0 0 0
301 0 1 0.0 9.9174 1.0840908824513383e-19 9.917397481351422 0 0 0
313 0 1 0.0 6.6116 3.3058 9.917397481351422 0 0 0
315 0 1 0.0 9.9174 3.3058 9.917397481351422 0 0 0
204 0 1 0.0 11.5703 1.6529 8.264499509168592 0 0 0
205 0 1 0.0 13.2232 2.612178030753054e-19 6.611600490831407 0 0 0
206 0 1 0.0 14.876100000000001 1.6529 8.264499509168592 0 0 0
207 0 1 0.0 16.529 0.0 6.611600490831407 0 0 0
218 0 1 0.0 11.5703 4.9587 8.264499509168592 0 0 0
219 0 1 0.0 13.2232 3.3058 6.611600490831407 0 0 0
220 0 1 0.0 14.876100000000001 4.9587 8.264499509168592 0 0 0
221 0 1 0.0 16.529 3.3058 6.611600490831407 0 0 0
303 0 1 0.0 13.2232 0.0 9.917397481351422 0 0 0
305 0 1 0.0 16.529 3.5889703344520704e-20 9.917397481351422 0 0 0
317 0 1 0.0 13.2232 3.3058 9.917397481351422 0 0 0
319 0 1 0.0 16.529 3.3058 9.917397481351422 0 0 0
208 0 1 0.0 18.1819 1.6529 8.264499509168592 0 0 0
209 0 1 0.0 19.8348 2.9618250901102266e-19 6.611600490831407 0 0 0
210 0 1 0.0 21.4877 1.6529 8.264499509168592 0 0 0
222 0 1 0.0 18.1819 4.9587 8.264499509168592 0 0 0
223 0 1 0.0 19.8348 3.3058 6.611600490831407 0 0 0
224 0 1 0.0 21.4877 4.9587 8.264499509168592 0 0 0
307 0 1 0.0 19.8348 0.0 9.917397481351422 0 0 0
321 0 1 0.0 19.8348 3.3058 9.917397481351422 0 0 0
225 0 1 0.0 7.75513477685326e-19 6.6116 6.611600490831407 0 0 0
226 0 1 0.0 1.6529 8.2645 8.264499509168592 0 0 0
227 0 1 0.0 3.3058 6.6116 6.611600490831407 0 0 0
228 0 1 0.0 4.9587 8.2645 8.264499509168592 0 0 0
239 0 1 0.0 1.4503878017778999e-19 9.9174 6.611600490831407 0 0 0
241 0 1 0.0 3.3058 9.9174 6.611600490831407 0 0 0
323 0 1 0.0 0.0 6.6116 9.917397481351422 0 0 0
325 0 1 0.0 3.3058 6.6116 9.917397481351422 0 0 0
337 0 1 0.0 2.153381889374331e-19 9.9174 9.917397481351422 0 0 0
339 0 1 0.0 3.3058 9.9174 9.917397481351422 0 0 0
229 0 1 0.0 6.6116 6.6116 6.611600490831407 0 0 0
230 0 1 0.0 8.2645 8.2645 8.264499509168592 0 0 0
231 0 1 0.0 9.9174 6.6116 6.611600490831407 0 0 0
243 0 1 0.0 6.6116 9.9174 6.611600490831407 0 0 0
245 0 1 0.0 9.9174 9.9174 6.611600490831407 0 0 0
327 0 1 0.0 6.6116 6.6116 9.917397481351422 0 0 0
329 0 1 0.0 9.9174 6.6116 9.917397481351422 0 0 0
341 0 1 0.0 6.6116 9.9174 9.917397481351422 0 0 0
343 0 1 0.0 9.9174 9.9174 9.917397481351422 0 0 0
232 0 1 0.0 11.5703 8.2645 8.264499509168592 0 0 0
233 0 1 0.0 13.2232 6.6116 6.611600490831407 0 0 0
234 0 1 0.0 14.876100000000001 8.2645 8.264499509168592 0 0 0
235 0 1 0.0 16.529 6.6116 6.611600490831407 0 0 0
247 0 1 0.0 13.2232 9.9174 6.611600490831407 0 0 0
249 0 1 0.0 16.529 9.9174 6.611600490831407 0 0 0
331 0 1 0.0 13.2232 6.6116 9.917397481351422 0 0 0
333 0 1 0.0 16.529 6.6116 9.917397481351422 0 0 0
345 0 1 0.0 13.2232 9.9174 9.917397481351422 0 0 0
347 0 1 0.0 16.529 9.9174 9.917397481351422 0 0 0
236 0 1 0.0 18.1819 8.2645 8.264499509168592 0 0 0
237 0 1 0.0 19.8348 6.6116 6.611600490831407 0 0 0
238 0 1 0.0 21.4877 8.2645 8.264499509168592 0 0 0
251 0 1 0.0 19.8348 9.9174 6.611600490831407 0 0 0
335 0 1 0.0 19.8348 6.6116 9.917397481351422 0 0 0
349 0 1 0.0 19.8348 9.9174 9.917397481351422 0 0 0
240 0 1 0.0 1.6529 11.5703 8.264499509168592 0 0 0
242 0 1 0.0 4.9587 11.5703 8.264499509168592 0 0 0
253 0 1 0.0 3.9293669527758405e-19 13.2232 6.611600490831407 0 0 0
254 0 1 0.0 1.6529 14.876100000000001 8.264499509168592 0 0 0
255 0 1 0.0 3.3058 13.2232 6.611600490831407 0 0 0
256 0 1 0.0 4.9587 14.876100000000001 8.264499509168592 0 0 0
267 0 1 0.0 0.0 16.529 6.611600490831407 0 0 0
269 0 1 0.0 3.3058 16.529 6.611600490831407 0 0 0
351 0 1 0.0 0.0 13.2232 9.917397481351422 0 0 0
353 0 1 0.0 3.3058 13.2232 9.917397481351422 0 0 0
365 0 1 0.0 1.0951907890975978e-19 16.529 9.917397481351422 0 0 0
367 0 1 0.0 3.3058 16.529 9.917397481351422 0 0 0
244 0 1 0.0 8.2645 11.5703 8.264499509168592 0 0 0
257 0 1 0.0 6.6116 13.2232 6.611600490831407 0 0 0
258 0 1 0.0 8.2645 14.876100000000001 8.264499509168592 0 0 0
259 0 1 0.0 9.9174 13.2232 6.611600490831407 0 0 0
271 0 1 0.0 6.6116 16.529 6.611600490831407 0 0 0
273 0 1 0.0 9.9174 16.529 6.611600490831407 0 0 0
355 0 1 0.0 6.6116 13.2232 9.917397481351422 0 0 0
357 0 1 0.0 9.9174 13.2232 9.917397481351422 0 0 0
369 0 1 0.0 6.6116 16.529 9.917397481351422 0 0 0
371 0 1 0.0 9.9174 16.529 9.917397481351422 0 0 0
246 0 1 0.0 11.5703 11.5703 8.264499509168592 0 0 0
248 0 1 0.0 14.876100000000001 11.5703 8.264499509168592 0 0 0
260 0 1 0.0 11.5703 14.876100000000001 8.264499509168592 0 0 0
261 0 1 0.0 13.2232 13.2232 6.611600490831407 0 0 0
262 0 1 0.0 14.876100000000001 14.876100000000001 8.264499509168592 0 0 0
263 0 1 0.0 16.529 13.2232 6.611600490831407 0 0 0
275 0 1 0.0 13.2232 16.529 6.611600490831407 0 0 0
277 0 1 0.0 16.529 16.529 6.611600490831407 0 0 0
359 0 1 0.0 13.2232 13.2232 9.917397481351422 0 0 0
361 0 1 0.0 16.529 13.2232 9.917397481351422 0 0 0
373 0 1 0.0 13.2232 16.529 9.917397481351422 0 0 0
375 0 1 0.0 16.529 16.529 9.917397481351422 0 0 0
250 0 1 0.0 18.1819 11.5703 8.264499509168592 0 0 0
252 0 1 0.0 21.4877 11.5703 8.264499509168592 0 0 0
264 0 1 0.0 18.1819 14.876100000000001 8.264499509168592 0 0 0
265 0 1 0.0 19.8348 13.2232 6.611600490831407 0 0 0
266 0 1 0.0 21.4877 14.876100000000001 8.264499509168592 0 0 0
279 0 1 0.0 19.8348 16.529 6.611600490831407 0 0 0
363 0 1 0.0 19.8348 13.2232 9.917397481351422 0 0 0
377 0 1 0.0 19.8348 16.529 9.917397481351422 0 0 0
268 0 1 0.0 1.6529 18.1819 8.264499509168592 0 0 0
270 0 1 0.0 4.9587 18.1819 8.264499509168592 0 0 0
281 0 1 0.0 2.9599751056691833e-19 19.8348 6.611600490831407 0 0 0
282 0 1 0.0 1.6529 21.4877 8.264499509168592 0 0 0
283 0 1 0.0 3.3058 19.8348 6.611600490831407 0 0 0
284 0 1 0.0 4.9587 21.4877 8.264499509168592 0 0 0
379 0 1 0.0 0.0 19.8348 9.917397481351422 0 0 0
381 0 1 0.0 3.3058 19.8348 9.917397481351422 0 0 0
272 0 1 0.0 8.2645 18.1819 8.264499509168592 0 0 0
285 0 1 0.0 6.6116 19.8348 6.611600490831407 0 0 0
286 0 1 0.0 8.2645 21.4877 8.264499509168592 0 0 0
287 0 1 0.0 9.9174 19.8348 6.611600490831407 0 0 0
383 0 1 0.0 6.6116 19.8348 9.917397481351422 0 0 0
385 0 1 0.0 9.9174 19.8348 9.917397481351422 0 0 0
274 0 1 0.0 11.5703 18.1819 8.264499509168592 0 0 0
276 0 1 0.0 14.876100000000001 18.1819 8.264499509168592 0 0 0
288 0 1 0.0 11.5703 21.4877 8.264499509168592 0 0 0
289 0 1 0.0 13.2232 19.8348 6.611600490831407 0 0 0
290 0 1 0.0 14.876100000000001 21.4877 8.264499509168592 0 0 0
291 0 1 0.0 16.529 19.8348 6.611600490831407 0 0 0
387 0 1 0.0 13.2232 19.8348 9.917397481351422 0 0 0
389 0 1 0.0 16.529 19.8348 9.917397481351422 0 0 0
278 0 1 0.0 18.1819 18.1819 8.264499509168592 0 0 0
280 0 1 0.0 21.4877 18.1819 8.264499509168592 0 0 0
292 0 1 0.0 18.1819 21.4877 8.264499509168592 0 0 0
293 0 1 0.0 19.8348 19.8348 6.611600490831407 0 0 0
294 0 1 0.0 21.4877 21.4877 8.264499509168592 0 0 0
391 0 1 0.0 19.8348 19.8348 9.917397481351422 0 0 0
296 0 1 0.0 1.6529 1.6529 11.570314575485924 0 0 0
298 0 1 0.0 4.9587 1.6529 11.570314575485924 0 0 0
310 0 1 0.0 1.6529 4.9587 11.570314575485924 0 0 0
312 0 1 0.0 4.9587 4.9587 11.570314575485924 0 0 0
393 0 1 0.0 3.537170251274674e-19 4.809959546712423e-19 13.22323001541909 0 0 0
394 0 1 0.0 1.6529 1.6529 14.87606476102629 0 0 0
395 0 1 0.0 3.3058 4.217964525578586e-20 13.22323001541909 0 0 0
396 0 1 0.0 4.9587 1.6529 14.87606476102629 0 0 0
407 0 1 0.0 9.915916603991763e-20 3.3058 13.22323001541909 0 0 0
408 0 1 0.0 1.6529 4.9587 14.87606476102629 0 0 0
409 0 1 0.0 3.3058 3.3058 13.22323001541909 0 0 0
410 0 1 0.0 4.958700002543233 4.958700001016927 14.876064802133834 0 0 0
300 0 1 0.0 8.2645 1.6529 11.570314575485924 0 0 0
314 0 1 0.0 8.2645 4.9587 11.570314575485924 0 0 0
397 0 1 0.0 6.6116 2.6935773461589564e-19 13.22323001541909 0 0 0
398 0 1 0.0 8.2645 1.6529 14.87606476102629 0 0 0
399 0 1 0.0 9.9174 0.0 13.22323001541909 0 0 0
411 0 1 0.0 6.6116 3.3058 13.22323001541909 0 0 0
412 0 1 0.0 8.2645 4.9587 14.87606476102629 0 0 0
413 0 1 0.0 9.9174 3.3058 13.22323001541909 0 0 0
302 0 1 0.0 11.5703 1.6529 11.570314575485924 0 0 0
304 0 1 0.0 14.876100000000001 1.6529 11.570314575485924 0 0 0
316 0 1 0.0 11.5703 4.9587 11.570314575485924 0 0 0
318 0 1 0.0 14.876100000000001 4.9587 11.570314575485924 0 0 0
400 0 1 0.0 11.5703 1.6529 14.87606476102629 0 0 0
401 0 1 0.0 13.2232 0.0 13.22323001541909 0 0 0
402 0 1 0.0 14.876100000000001 1.6529 14.87606476102629 0 0 0
403 0 1 0.0 16.529 2.1163822361195681e-19 13.22323001541909 0 0 0
414 0 1 0.0 11.5703 4.9587 14.87606476102629 0 0 0
415 0 1 0.0 13.2232 3.3058 13.22323001541909 0 0 0
416 0 1 0.0 14.876100007504245 4.958700001141422 14.876064794578856 0 0 0
417 0 1 0.0 16.529 3.3058 13.22323001541909 0 0 0
306 0 1 0.0 18.1819 1.6529 11.570314575485924 0 0 0
308 0 1 0.0 21.4877 1.6529 11.570314575485924 0 0 0
320 0 1 0.0 18.1819 4.9587 11.570314575485924 0 0 0
322 0 1 0.0 21.4877 4.9587 11.570314575485924 0 0 0
404 0 1 0.0 18.1819 1.6529 14.87606476102629 0 0 0
405 0 1 0.0 19.8348 2.672302525086959e-19 13.22323001541909 0 0 0
406 0 1 0.0 21.4877 1.6529 14.87606476102629 0 0 0
418 0 1 0.0 18.1819 4.9587 14.87606476102629 0 0 0
419 0 1 0.0 19.8348 3.3058 13.22323001541909 0 0 0
420 0 1 0.0 21.487700008102244 4.958700003701582 14.87606479615586 0 0 0
324 0 1 0.0 1.6529 8.2645 11.570314575485924 0 0 0
326 0 1 0.0 4.9587 8.2645 11.570314575485924 0 0 0
421 0 1 0.0 1.6871858102314345e-19 6.6116 13.22323001541909 0 0 0
422 0 1 0.0 1.6529 8.2645 14.87606476102629 0 0 0
423 0 1 0.0 3.3058 6.6116 13.22323001541909 0 0 0
424 0 1 0.0 4.9587 8.2645 14.87606476102629 0 0 0
435 0 1 0.0 0.0 9.9174 13.22323001541909 0 0 0
437 0 1 0.0 3.3058 9.9174 13.22323001541909 0 0 0
328 0 1 0.0 8.2645 8.2645 11.570314575485924 0 0 0
425 0 1 0.0 6.6116 6.6116 13.22323001541909 0 0 0
426 0 1 0.0 8.2645 8.2645 14.87606476102629 0 0 0
427 0 1 0.0 9.9174 6.6116 13.22323001541909 0 0 0
439 0 1 0.0 6.6116 9.9174 13.22323001541909 0 0 0
441 0 1 0.0 9.9174 9.9174 13.22323001541909 0 0 0
330 0 1 0.0 11.5703 8.2645 11.570314575485924 0 0 0
332 0 1 0.0 14.876100000000001 8.2645 11.570314575485924 0 0 0
428 0 1 0.0 11.5703 8.2645 14.87606476102629 0 0 0
429 0 1 0.0 13.2232 6.6116 13.22323001541909 0 0 0
430 0 1 0.0 14.876100000000001 8.2645 14.87606476102629 0 0 0
431 0 1 0.0 16.529 6.6116 13.22323001541909 0 0 0
443 0 1 0.0 13.2232 9.9174 13.22323001541909 0 0 0
445 0 1 0.0 16.529 9.9174 13.22323001541909 0 0 0
334 0 1 0.0 18.1819 8.2645 11.570314575485924 0 0 0
336 0 1 0.0 21.4877 8.2645 11.570314575485924 0 0 0
432 0 1 0.0 18.1819 8.2645 14.87606476102629 0 0 0
433 0 1 0.0 19.8348 6.6116 13.22323001541909 0 0 0
434 0 1 0.0 21.4877 8.2645 14.87606476102629 0 0 0
447 0 1 0.0 19.8348 9.9174 13.22323001541909 0 0 0
338 0 1 0.0 1.6529 11.5703 11.570314575485924 0 0 0
340 0 1 0.0 4.9587 11.5703 11.570314575485924 0 0 0
352 0 1 0.0 1.6529 14.876100000000001 11.570314575485924 0 0 0
354 0 1 0.0 4.9587 14.876100000000001 11.570314575485924 0 0 0
436 0 1 0.0 1.6529 11.5703 14.87606476102629 0 0 0
438 0 1 0.0 4.9587 11.5703 14.87606476102629 0 0 0
449 0 1 0.0 2.456779337705422e-19 13.2232 13.22323001541909 0 0 0
450 0 1 0.0 1.6529 14.876100000000001 14.87606476102629 0 0 0
451 0 1 0.0 3.3058 13.2232 13.22323001541909 0 0 0
452 0 1 0.0 4.9587 14.876100000000001 14.87606476102629 0 0 0
463 0 1 0.0 0.0 16.529 13.22323001541909 0 0 0
465 0 1 0.0 3.3058 16.529 13.22323001541909 0 0 0
342 0 1 0.0 8.2645 11.5703 11.570314575485924 0 0 0
356 0 1 0.0 8.2645 14.876100000000001 11.570314575485924 0 0 0
440 0 1 0.0 8.2645 11.5703 14.87606476102629 0 0 0
453 0 1 0.0 6.6116 13.2232 13.22323001541909 0 0 0
454 0 1 0.0 8.2645 14.876100000000001 14.87606476102629 0 0 0
455 0 1 0.0 9.9174 13.2232 13.22323001541909 0 0 0
467 0 1 0.0 6.6116 16.529 13.22323001541909 0 0 0
469 0 1 0.0 9.9174 16.529 13.22323001541909 0 0 0
344 0 1 0.0 11.5703 11.5703 11.570314575485924 0 0 0
346 0 1 0.0 14.876100000000001 11.5703 11.570314575485924 0 0 0
358 0 1 0.0 11.5703 14.876100000000001 11.570314575485924 0 0 0
360 0 1 0.0 14.876100000000001 14.876100000000001 11.570314575485924 0 0 0
442 0 1 0.0 11.5703 11.5703 14.87606476102629 0 0 0
444 0 1 0.0 14.876100000000001 11.5703 14.87606476102629 0 0 0
456 0 1 0.0 11.5703 14.876100000000001 14.87606476102629 0 0 0
457 0 1 0.0 13.2232 13.2232 13.22323001541909 0 0 0
458 0 1 0.0 14.876100000000001 14.876100000000001 14.87606476102629 0 0 0
459 0 1 0.0 16.529 13.2232 13.22323001541909 0 0 0
471 0 1 0.0 13.2232 16.529 13.22323001541909 0 0 0
473 0 1 0.0 16.529 16.529 13.22323001541909 0 0 0
348 0 1 0.0 18.1819 11.5703 11.570314575485924 0 0 0
350 0 1 0.0 21.4877 11.5703 11.570314575485924 0 0 0
362 0 1 0.0 18.1819 14.876100000000001 11.570314575485924 0 0 0
364 0 1 0.0 21.4877 14.876100000000001 11.570314575485924 0 0 0
446 0 1 0.0 18.1819 11.5703 14.87606476102629 0 0 0
448 0 1 0.0 21.4877 11.5703 14.87606476102629 0 0 0
460 0 1 0.0 18.1819 14.876100000000001 14.87606476102629 0 0 0
461 0 1 0.0 19.8348 13.2232 13.22323001541909 0 0 0
462 0 1 0.0 21.4877 14.876100000000001 14.87606476102629 0 0 0
475 0 1 0.0 19.8348 16.529 13.22323001541909 0 0 0
366 0 1 0.0 1.6529 18.1819 11.570314575485924 0 0 0
368 0 1 0.0 4.9587 18.1819 11.570314575485924 0 0 0
380 0 1 0.0 1.6529 21.4877 11.570314575485924 0 0 0
382 0 1 0.0 4.9587 21.4877 11.570314575485924 0 0 0
464 0 1 0.0 1.6529 18.1819 14.87606476102629 0 0 0
466 0 1 0.0 4.9587 18.1819 14.87606476102629 0 0 0
477 0 1 0.0 3.344771869406177e-19 19.8348 13.22323001541909 0 0 0
478 0 1 0.0 1.6529 21.4877 14.87606476102629 0 0 0
479 0 1 0.0 3.3058 19.8348 13.22323001541909 0 0 0
480 0 1 0.0 4.9587 21.4877 14.87606476102629 0 0 0
370 0 1 0.0 8.2645 18.1819 11.570314575485924 0 0 0
384 0 1 0.0 8.2645 21.4877 11.570314575485924 0 0 0
468 0 1 0.0 8.2645 18.1819 14.87606476102629 0 0 0
481 0 1 0.0 6.6116 19.8348 13.22323001541909 0 0 0
482 0 1 0.0 8.2645 21.4877 14.87606476102629 0 0 0
483 0 1 0.0 9.9174 19.8348 13.22323001541909 0 0 0
372 0 1 0.0 11.5703 18.1819 11.570314575485924 0 0 0
374 0 1 0.0 14.876100000000001 18.1819 11.570314575485924 0 0 0
386 0 1 0.0 11.5703 21.4877 11.570314575485924 0 0 0
388 0 1 0.0 14.876100000000001 21.4877 11.570314575485924 0 0 0
470 0 1 0.0 11.5703 18.1819 14.87606476102629 0 0 0
472 0 1 0.0 14.876100000000001 18.1819 14.87606476102629 0 0 0
484 0 1 0.0 11.5703 21.4877 14.87606476102629 0 0 0
485 0 1 0.0 13.2232 19.8348 13.22323001541909 0 0 0
486 0 1 0.0 14.876100000000001 21.4877 14.87606476102629 0 0 0
487 0 1 0.0 16.529 19.8348 13.22323001541909 0 0 0
376 0 1 0.0 18.1819 18.1819 11.570314575485924 0 0 0
378 0 1 0.0 21.4877 18.1819 11.570314575485924 0 0 0
390 0 1 0.0 18.1819 21.4877 11.570314575485924 0 0 0
392 0 1 0.0 21.4877 21.4877 11.570314575485924 0 0 0
474 0 1 0.0 18.1819 18.1819 14.87606476102629 0 0 0
476 0 1 0.0 21.4877 18.1819 14.87606476102629 0 0 0
488 0 1 0.0 18.1819 21.4877 14.87606476102629 0 0 0
489 0 1 0.0 19.8348 19.8348 13.22323001541909 0 0 0
490 0 1 0.0 21.4877 21.4877 14.87606476102629 0 0 0
492 1 2 0.0 0.2300962082284457 0.5508445165987639 22.115282494299723 0 0 0
493 2 2 0.0 5.124633910192622 0.37990472972691225 21.70942007131627 0 0 0
501 6 2 0.0 5.370999715183865 5.123560610449155 21.540308459386143 0 0 0
503 7 2 0.0 10.392170534792298 5.510141188625574 22.010222402779128 0 0 0
497 4 2 0.0 15.899946424421122 0.09796541710439516 21.998424091828234 0 0 0
504 7 2 0.0 11.607829465207702 5.489858811374426 21.989777597220872 0 0 0
505 8 2 0.0 16.357670559667138 5.184052030024609 21.500416963175326 0 0 0
500 5 2 0.0 22.99879205999783 5.649055527411759 21.427866311164653 -1 0 0
508 9 2 0.0 0.4301994967318932 11.202561049399073 21.62110500890356 0 0 0
510 10 2 0.0 5.794620263602345 10.588151977605127 21.663482382743016 0 0 0
511 11 2 0.0 10.560035017859766 10.651126418537983 21.766800431715218 0 0 0
513 12 2 0.0 16.93105621642609 10.613812311214149 21.81368411954246 0 0 0
514 12 2 0.0 16.06894378357391 11.386187688785851 22.18631588045754 0 0 0
515 13 2 0.0 0.4746112638390829 16.84300577049751 21.836429863231462 0 0 0
518 14 2 0.0 5.098230969549974 16.08335644021322 21.81384471466153 0 0 0
517 14 2 0.0 5.901769030450026 16.91664355978678 22.18615528533847 0 0 0
519 15 2 0.0 10.501413391267295 16.634962676959418 21.67928132355541 0 0 0
521 16 2 0.0 16.219659454082304 15.976340489250275 21.870177447583536 0 0 0
522 16 2 0.0 16.780340545917696 17.023659510749727 22.129822552416464 0 0 0
516 13 2 0.0 22.665988736160916 16.15699422950249 22.163570136768538 -1 0 0
495 3 2 0.0 11.375228836981837 22.784245524359715 21.68081540201884 0 -1 0
498 4 2 0.0 17.100053575578876 23.042634582895605 22.001575908171766 0 -1 0
491 1 2 0.0 22.910503791771553 22.589755483401234 21.884717505700277 -1 -1 0
499 5 2 0.0 0.141807940002169 5.350944472588241 22.572133688835347 0 0 0
525 18 2 0.0 5.251048327496985 0.12735773545139042 26.960123095531355 0 0 0
534 22 2 0.0 5.143143373433899 5.086128473375446 27.766510239062825 0 0 0
496 3 2 0.0 10.624771163018163 0.35635447564028516 22.31918459798116 0 0 0
528 19 2 0.0 11.197271997473356 0.2716633483860479 26.993100814602595 0 0 0
535 23 2 0.0 11.203569455803263 5.658913064737794 26.949572789081422 0 0 0
529 20 2 0.0 15.955008983707232 0.26788810736800367 27.470255183796752 0 0 0
538 24 2 0.0 16.650410305773324 4.941139241131939 27.686320670121674 0 0 0
524 17 2 0.0 22.916135647921816 0.1198340269521472 26.947804780326237 -1 0 0
532 21 2 0.0 22.824993296126348 5.526534116116123 26.981008334217258 -1 0 0
502 6 2 0.0 5.629000284816135 5.876439389550845 22.45969154061386 0 0 0
509 10 2 0.0 5.205379736397655 11.411848022394873 22.336517617256984 0 0 0
541 26 2 0.0 5.203582093733785 10.481350656137801 27.61315159281276 0 0 0
512 11 2 0.0 11.439964982140234 11.348873581462017 22.233199568284782 0 0 0
533 22 2 0.0 5.856856626566101 5.913871526624554 27.233489760937175 0 0 0
542 26 2 0.0 5.796417906266215 11.518649343862199 27.38684840718724 0 0 0
544 27 2 0.0 11.275477444568468 11.082790591439705 26.96434909175556 0 0 0