LAMMPS data file via write_data, version 29 Oct 2020, timestep = 1

580 atoms
2 atom types

0.0 23.1406 xlo xhi
0.0 23.1406 ylo yhi
0.0 50.0 zlo zhi

Masses

1 180.94788
2 15.999

Atoms # full

1 0 1 0.0 1.4799875528345918e-20 2.1200821694355525e-19 3.523897371080992e-05 0 0 0
2 0 1 0.0 1.6529 1.6529 1.6528699845809112 0 0 0
3 0 1 0.0 3.3058 2.725720825822083e-19 3.523897371081003e-05 0 0 0
4 0 1 0.0 4.9587 1.6529 1.6528699845809112 0 0 0
15 0 1 0.0 2.0423828229117365e-19 3.3058 3.523897371080948e-05 0 0 0
16 0 1 0.0 1.6529 4.9587 1.6528699845809112 0 0 0
17 0 1 0.0 3.3058 3.3058 3.523897371080924e-05 0 0 0
18 0 1 0.0 4.9587 4.9587 1.6528699845809112 0 0 0
99 0 1 0.0 4.040366019238435e-19 6.572994719026629e-19 3.305785424514077 0 0 0
100 0 1 0.0 1.6529 1.6529 4.958702518648578 0 0 0
101 0 1 0.0 3.3058 4.923733589836582e-19 3.305785424514077 0 0 0
102 0 1 0.0 4.9587 1.6529 4.958702518648578 0 0 0
113 0 1 0.0 3.999666361535484e-19 3.3058 3.305785424514077 0 0 0
114 0 1 0.0 1.6529 4.9587 4.958702518648578 0 0 0
115 0 1 0.0 3.3058 3.3058 3.305785424514077 0 0 0
116 0 1 0.0 4.9587 4.9587 4.958702518648578 0 0 0
5 0 1 0.0 6.6116 2.4715792132337676e-19 3.523897371081029e-05 0 0 0
6 0 1 0.0 8.2645 1.6529 1.6528699845809112 0 0 0
7 0 1 0.0 9.9174 2.6195779685172273e-19 3.523897371080982e-05 0 0 0
19 0 1 0.0 6.6116 3.3058 3.523897371080934e-05 0 0 0
20 0 1 0.0 8.2645 4.9587 1.6528699845809112 0 0 0
21 0 1 0.0 9.9174 3.3058 3.523897371080939e-05 0 0 0
103 0 1 0.0 6.6116 9.860417070760467e-19 3.305785424514077 0 0 0
104 0 1 0.0 8.2645 1.6529 4.958702518648578 0 0 0
105 0 1 0.0 9.9174 1.0197114239030335e-18 3.305785424514077 0 0 0
117 0 1 0.0 6.6116 3.3058 3.305785424514077 0 0 0
118 0 1 0.0 8.2645 4.9587 4.958702518648578 0 0 0
119 0 1 0.0 9.9174 3.3058 3.305785424514077 0 0 0
8 0 1 0.0 11.5703 1.6529 1.6528699845809112 0 0 0
9 0 1 0.0 13.2232 2.0867824494967743e-19 3.5238973710810126e-05 0 0 0
10 0 1 0.0 14.876100000000001 1.6529 1.6528699845809112 0 0 0
11 0 1 0.0 16.529 9.175920072814886e-20 3.523897371080959e-05 0 0 0
22 0 1 0.0 11.5703 4.9587 1.6528699845809112 0 0 0
23 0 1 0.0 13.2232 3.3058 3.523897371080888e-05 0 0 0
24 0 1 0.0 14.876100000000001 4.9587 1.6528699845809112 0 0 0
25 0 1 0.0 16.529 3.3058 3.5238973710809184e-05 0 0 0
106 0 1 0.0 11.5703 1.6529 4.958702518648578 0 0 0
107 0 1 0.0 13.2232 6.1419483442635545e-19 3.305785424514077 0 0 0
108 0 1 0.0 14.876100000000001 1.6529 4.958702518648578 0 0 0
109 0 1 0.0 16.529 1.1629002377640144e-18 3.305785424514077 0 0 0
120 0 1 0.0 11.5703 4.9587 4.958702518648578 0 0 0
121 0 1 0.0 13.2232 3.3058 3.305785424514077 0 0 0
122 0 1 0.0 14.876100000000001 4.9587 4.958702518648578 0 0 0
123 0 1 0.0 16.529 3.3058 3.305785424514077 0 0 0
12 0 1 0.0 18.1819 1.6529 1.6528699845809112 0 0 0
13 0 1 0.0 19.8348 9.495045143654427e-20 3.523897371081033e-05 0 0 0
14 0 1 0.0 21.4877 1.6529 1.6528699845809112 0 0 0
26 0 1 0.0 18.1819 4.9587 1.6528699845809112 0 0 0
27 0 1 0.0 19.8348 3.3058 3.523897371080873e-05 0 0 0
28 0 1 0.0 21.4877 4.9587 1.6528699845809112 0 0 0
110 0 1 0.0 18.1819 1.6529 4.958702518648578 0 0 0
111 0 1 0.0 19.8348 1.131265485697941e-19 3.305785424514077 0 0 0
112 0 1 0.0 21.4877 1.6529 4.958702518648578 0 0 0
124 0 1 0.0 18.1819 4.9587 4.958702518648578 0 0 0
125 0 1 0.0 19.8348 3.3058 3.305785424514077 0 0 0
126 0 1 0.0 21.4877 4.9587 4.958702518648578 0 0 0
29 0 1 0.0 5.919950211338367e-20 6.6116 3.523897371080982e-05 0 0 0
30 0 1 0.0 1.6529 8.2645 1.6528699845809112 0 0 0
31 0 1 0.0 3.3058 6.6116 3.523897371081012e-05 0 0 0
32 0 1 0.0 4.9587 8.2645 1.6528699845809112 0 0 0
43 0 1 0.0 0.0 9.9174 3.5238973710810214e-05 0 0 0
45 0 1 0.0 3.3058 9.9174 3.5238973710809496e-05 0 0 0
127 0 1 0.0 5.586953011950584e-19 6.6116 3.305785424514077 0 0 0
128 0 1 0.0 1.6529 8.2645 4.958702518648578 0 0 0
129 0 1 0.0 3.3058 6.6116 3.305785424514077 0 0 0
130 0 1 0.0 4.9587 8.2645 4.958702518648578 0 0 0
141 0 1 0.0 7.662635554801099e-19 9.9174 3.305785424514077 0 0 0
143 0 1 0.0 3.3058 9.9174 3.305785424514077 0 0 0
33 0 1 0.0 6.6116 6.6116 3.523897371081028e-05 0 0 0
34 0 1 0.0 8.2645 8.2645 1.6528699845809112 0 0 0
35 0 1 0.0 9.9174 6.6116 3.5238973710809875e-05 0 0 0
47 0 1 0.0 6.6116 9.9174 3.5238973710809726e-05 0 0 0
49 0 1 0.0 9.9174 9.9174 3.5238973710809685e-05 0 0 0
131 0 1 0.0 6.6116 6.6116 3.305785424514077 0 0 0
132 0 1 0.0 8.2645 8.2645 4.958702518648578 0 0 0
133 0 1 0.0 9.9174 6.6116 3.305785424514077 0 0 0
145 0 1 0.0 6.6116 9.9174 3.305785424514077 0 0 0
147 0 1 0.0 9.9174 9.9174 3.305785424514077 0 0 0
36 0 1 0.0 11.5703 8.2645 1.6528699845809112 0 0 0
37 0 1 0.0 13.2232 6.6116 3.5238973710810194e-05 0 0 0
38 0 1 0.0 14.876100000000001 8.2645 1.6528699845809112 0 0 0
39 0 1 0.0 16.529 6.6116 3.523897371080962e-05 0 0 0
51 0 1 0.0 13.2232 9.9174 3.523897371080932e-05 0 0 0
53 0 1 0.0 16.529 9.9174 3.523897371080969e-05 0 0 0
134 0 1 0.0 11.5703 8.2645 4.958702518648578 0 0 0
135 0 1 0.0 13.2232 6.6116 3.305785424514077 0 0 0
136 0 1 0.0 14.876100000000001 8.2645 4.958702518648578 0 0 0
137 0 1 0.0 16.529 6.6116 3.305785424514077 0 0 0
149 0 1 0.0 13.2232 9.9174 3.305785424514077 0 0 0
151 0 1 0.0 16.529 9.9174 3.305785424514077 0 0 0
40 0 1 0.0 18.1819 8.2645 1.6528699845809112 0 0 0
41 0 1 0.0 19.8348 6.6116 3.5238973710810587e-05 0 0 0
42 0 1 0.0 21.4877 8.2645 1.6528699845809112 0 0 0
55 0 1 0.0 19.8348 9.9174 3.523897371080931e-05 0 0 0
138 0 1 0.0 18.1819 8.2645 4.958702518648578 0 0 0
139 0 1 0.0 19.8348 6.6116 3.305785424514077 0 0 0
140 0 1 0.0 21.4877 8.2645 4.958702518648578 0 0 0
153 0 1 0.0 19.8348 9.9174 3.305785424514077 0 0 0
44 0 1 0.0 1.6529 11.5703 1.6528699845809112 0 0 0
46 0 1 0.0 4.9587 11.5703 1.6528699845809112 0 0 0
57 0 1 0.0 1.8943840676282773e-19 13.2232 3.52389737108094e-05 0 0 0
58 0 1 0.0 1.6529 14.876100000000001 1.6528699845809112 0 0 0
59 0 1 0.0 3.3058 13.2232 3.523897371080952e-05 0 0 0
60 0 1 0.0 4.9587 14.876100000000001 1.6528699845809112 0 0 0
71 0 1 0.0 3.9959663926533977e-20 16.529 3.523897371081012e-05 0 0 0
73 0 1 0.0 3.3058 16.529 3.5238973710809557e-05 0 0 0
142 0 1 0.0 1.6529 11.5703 4.958702518648578 0 0 0
144 0 1 0.0 4.9587 11.5703 4.958702518648578 0 0 0
155 0 1 0.0 0.0 13.2232 3.305785424514077 0 0 0
156 0 1 0.0 1.6529 14.876100000000001 4.958702518648578 0 0 0
157 0 1 0.0 3.3058 13.2232 3.305785424514077 0 0 0
158 0 1 0.0 4.9587 14.876100000000001 4.958702518648578 0 0 0
169 0 1 0.0 5.446354194431297e-19 16.529 3.305785424514077 0 0 0
171 0 1 0.0 3.3058 16.529 3.305785424514077 0 0 0
48 0 1 0.0 8.2645 11.5703 1.6528699845809112 0 0 0
61 0 1 0.0 6.6116 13.2232 3.523897371080997e-05 0 0 0
62 0 1 0.0 8.2645 14.876100000000001 1.6528699845809112 0 0 0
63 0 1 0.0 9.9174 13.2232 3.523897371080936e-05 0 0 0
75 0 1 0.0 6.6116 16.529 3.523897371080985e-05 0 0 0
77 0 1 0.0 9.9174 16.529 3.52389737108095e-05 0 0 0
146 0 1 0.0 8.2645 11.5703 4.958702518648578 0 0 0
159 0 1 0.0 6.6116 13.2232 3.305785424514077 0 0 0
160 0 1 0.0 8.2645 14.876100000000001 4.958702518648578 0 0 0
161 0 1 0.0 9.9174 13.2232 3.305785424514077 0 0 0
173 0 1 0.0 6.6116 16.529 3.305785424514077 0 0 0
175 0 1 0.0 9.9174 16.529 3.305785424514077 0 0 0
50 0 1 0.0 11.5703 11.5703 1.6528699845809112 0 0 0
52 0 1 0.0 14.876100000000001 11.5703 1.6528699845809112 0 0 0
64 0 1 0.0 11.5703 14.876100000000001 1.6528699845809112 0 0 0
65 0 1 0.0 13.2232 13.2232 3.523897371081017e-05 0 0 0
66 0 1 0.0 14.876100000000001 14.876100000000001 1.6528699845809112 0 0 0
67 0 1 0.0 16.529 13.2232 3.5238973710808974e-05 0 0 0
79 0 1 0.0 13.2232 16.529 3.523897371080934e-05 0 0 0
81 0 1 0.0 16.529 16.529 3.523897371080962e-05 0 0 0
148 0 1 0.0 11.5703 11.5703 4.958702518648578 0 0 0
150 0 1 0.0 14.876100000000001 11.5703 4.958702518648578 0 0 0
162 0 1 0.0 11.5703 14.876100000000001 4.958702518648578 0 0 0
163 0 1 0.0 13.2232 13.2232 3.305785424514077 0 0 0
164 0 1 0.0 14.876100000000001 14.876100000000001 4.958702518648578 0 0 0
165 0 1 0.0 16.529 13.2232 3.305785424514077 0 0 0
177 0 1 0.0 13.2232 16.529 3.305785424514077 0 0 0
179 0 1 0.0 16.529 16.529 3.305785424514077 0 0 0
54 0 1 0.0 18.1819 11.5703 1.6528699845809112 0 0 0
56 0 1 0.0 21.4877 11.5703 1.6528699845809112 0 0 0
68 0 1 0.0 18.1819 14.876100000000001 1.6528699845809112 0 0 0
69 0 1 0.0 19.8348 13.2232 3.523897371081016e-05 0 0 0
70 0 1 0.0 21.4877 14.876100000000001 1.6528699845809112 0 0 0
83 0 1 0.0 19.8348 16.529 3.523897371080942e-05 0 0 0
152 0 1 0.0 18.1819 11.5703 4.958702518648578 0 0 0
154 0 1 0.0 21.4877 11.5703 4.958702518648578 0 0 0
166 0 1 0.0 18.1819 14.876100000000001 4.958702518648578 0 0 0
167 0 1 0.0 19.8348 13.2232 3.305785424514077 0 0 0
168 0 1 0.0 21.4877 14.876100000000001 4.958702518648578 0 0 0
181 0 1 0.0 19.8348 16.529 3.305785424514077 0 0 0
72 0 1 0.0 1.6529 18.1819 1.6528699845809112 0 0 0
74 0 1 0.0 4.9587 18.1819 1.6528699845809112 0 0 0
85 0 1 0.0 1.746385312344818e-19 19.8348 3.5238973710809685e-05 0 0 0
86 0 1 0.0 1.6529 21.4877 1.6528699845809112 0 0 0
87 0 1 0.0 3.3058 19.8348 3.523897371080957e-05 0 0 0
88 0 1 0.0 4.9587 21.4877 1.6528699845809112 0 0 0
170 0 1 0.0 1.6529 18.1819 4.958702518648578 0 0 0
172 0 1 0.0 4.9587 18.1819 4.958702518648578 0 0 0
183 0 1 0.0 0.0 19.8348 3.305785424514077 0 0 0
184 0 1 0.0 1.6529 21.4877 4.958702518648578 0 0 0
185 0 1 0.0 3.3058 19.8348 3.305785424514077 0 0 0
186 0 1 0.0 4.9587 21.4877 4.958702518648578 0 0 0
76 0 1 0.0 8.2645 18.1819 1.6528699845809112 0 0 0
89 0 1 0.0 6.6116 19.8348 3.5238973710809855e-05 0 0 0
90 0 1 0.0 8.2645 21.4877 1.6528699845809112 0 0 0
91 0 1 0.0 9.9174 19.8348 3.52389737108096e-05 0 0 0
174 0 1 0.0 8.2645 18.1819 4.958702518648578 0 0 0
187 0 1 0.0 6.6116 19.8348 3.305785424514077 0 0 0
188 0 1 0.0 8.2645 21.4877 4.958702518648578 0 0 0
189 0 1 0.0 9.9174 19.8348 3.305785424514077 0 0 0
78 0 1 0.0 11.5703 18.1819 1.6528699845809112 0 0 0
80 0 1 0.0 14.876100000000001 18.1819 1.6528699845809112 0 0 0
92 0 1 0.0 11.5703 21.4877 1.6528699845809112 0 0 0
93 0 1 0.0 13.2232 19.8348 3.5238973710809414e-05 0 0 0
94 0 1 0.0 14.876100000000001 21.4877 1.6528699845809112 0 0 0
95 0 1 0.0 16.529 19.8348 3.523897371080944e-05 0 0 0
176 0 1 0.0 11.5703 18.1819 4.958702518648578 0 0 0
178 0 1 0.0 14.876100000000001 18.1819 4.958702518648578 0 0 0
190 0 1 0.0 11.5703 21.4877 4.958702518648578 0 0 0
191 0 1 0.0 13.2232 19.8348 3.305785424514077 0 0 0
192 0 1 0.0 14.876100000000001 21.4877 4.958702518648578 0 0 0
193 0 1 0.0 16.529 19.8348 3.305785424514077 0 0 0
82 0 1 0.0 18.1819 18.1819 1.6528699845809112 0 0 0
84 0 1 0.0 21.4877 18.1819 1.6528699845809112 0 0 0
96 0 1 0.0 18.1819 21.4877 1.6528699845809112 0 0 0
97 0 1 0.0 19.8348 19.8348 3.523897371080979e-05 0 0 0
98 0 1 0.0 21.4877 21.4877 1.6528699845809112 0 0 0
180 0 1 0.0 18.1819 18.1819 4.958702518648578 0 0 0
182 0 1 0.0 21.4877 18.1819 4.958702518648578 0 0 0
194 0 1 0.0 18.1819 21.4877 4.958702518648578 0 0 0
195 0 1 0.0 19.8348 19.8348 3.305785424514077 0 0 0
196 0 1 0.0 21.4877 21.4877 4.958702518648578 0 0 0
197 0 1 0.0 1.7907849389298556e-19 0.0 6.611600490831407 0 0 0
198 0 1 0.0 1.6529 1.6529 8.264499509168592 0 0 0
199 0 1 0.0 3.3058 0.0 6.611600490831407 0 0 0
200 0 1 0.0 4.9587 1.6529 8.264499509168592 0 0 0
211 0 1 0.0 4.987558053052574e-19 3.3058 6.611600490831407 0 0 0
212 0 1 0.0 1.6529 4.9587 8.264499509168592 0 0 0
213 0 1 0.0 3.3058 3.3058 6.611600490831407 0 0 0
214 0 1 0.0 4.9587 4.9587 8.264499509168592 0 0 0
295 0 1 0.0 3.1079738609526427e-20 0.0 9.917397481351422 0 0 0
297 0 1 0.0 3.3058 0.0 9.917397481351422 0 0 0
309 0 1 0.0 2.460479306587508e-19 3.3058 9.917397481351422 0 0 0
311 0 1 0.0 3.3058 3.3058 9.917397481351422 0 0 0
201 0 1 0.0 6.6116 3.6703691310297874e-19 6.611600490831407 0 0 0
202 0 1 0.0 8.2645 1.6529 8.264499509168592 0 0 0
203 0 1 0.0 9.9174 0.0 6.611600490831407 0 0 0
215 0 1 0.0 6.6116 3.3058 6.611600490831407 0 0 0
216 0 1 0.0 8.2645 4.9587 8.264499509168592 0 0 0
217 0 1 0.0 9.9174 3.3058 6.611600490831407 0 0 0
299 0 1 0.0 6.6116 0.0 9.917397481351422 0 0 0
301 0 1 0.0 9.9174 1.0840908824513383e-19 9.917397481351422 0 0 0
313 0 1 0.0 6.6116 3.3058 9.917397481351422 0 0 0
315 0 1 0.0 9.9174 3.3058 9.917397481351422 0 0 0
204 0 1 0.0 11.5703 1.6529 8.264499509168592 0 0 0
205 0 1 0.0 13.2232 2.612178030753054e-19 6.611600490831407 0 0 0
206 0 1 0.0 14.876100000000001 1.6529 8.264499509168592 0 0 0
207 0 1 0.0 16.529 0.0 6.611600490831407 0 0 0
218 0 1 0.0 11.5703 4.9587 8.264499509168592 0 0 0
219 0 1 0.0 13.2232 3.3058 6.611600490831407 0 0 0
220 0 1 0.0 14.876100000000001 4.9587 8.264499509168592 0 0 0
221 0 1 0.0 16.529 3.3058 6.611600490831407 0 0 0
303 0 1 0.0 13.2232 0.0 9.917397481351422 0 0 0
305 0 1 0.0 16.529 3.5889703344520704e-20 9.917397481351422 0 0 0
317 0 1 0.0 13.2232 3.3058 9.917397481351422 0 0 0
319 0 1 0.0 16.529 3.3058 9.917397481351422 0 0 0
208 0 1 0.0 18.1819 1.6529 8.264499509168592 0 0 0
209 0 1 0.0 19.8348 2.9618250901102266e-19 6.611600490831407 0 0 0
210 0 1 0.0 21.4877 1.6529 8.264499509168592 0 0 0
222 0 1 0.0 18.1819 4.9587 8.264499509168592 0 0 0
223 0 1 0.0 19.8348 3.3058 6.611600490831407 0 0 0
224 0 1 0.0 21.4877 4.9587 8.264499509168592 0 0 0
307 0 1 0.0 19.8348 0.0 9.917397481351422 0 0 0
321 0 1 0.0 19.8348 3.3058 9.917397481351422 0 0 0
225 0 1 0.0 7.75513477685326e-19 6.6116 6.611600490831407 0 0 0
226 0 1 0.0 1.6529 8.2645 8.264499509168592 0 0 0
227 0 1 0.0 3.3058 6.6116 6.611600490831407 0 0 0
228 0 1 0.0 4.9587 8.2645 8.264499509168592 0 0 0
239 0 1 0.0 1.4503878017778999e-19 9.9174 6.611600490831407 0 0 0
241 0 1 0.0 3.3058 9.9174 6.611600490831407 0 0 0
323 0 1 0.0 0.0 6.6116 9.917397481351422 0 0 0
325 0 1 0.0 3.3058 6.6116 9.917397481351422 0 0 0
337 0 1 0.0 2.153381889374331e-19 9.9174 9.917397481351422 0 0 0
339 0 1 0.0 3.3058 9.9174 9.917397481351422 0 0 0
229 0 1 0.0 6.6116 6.6116 6.611600490831407 0 0 0
230 0 1 0.0 8.2645 8.2645 8.264499509168592 0 0 0
231 0 1 0.0 9.9174 6.6116 6.611600490831407 0 0 0
243 0 1 0.0 6.6116 9.9174 6.611600490831407 0 0 0
245 0 1 0.0 9.9174 9.9174 6.611600490831407 0 0 0
327 0 1 0.0 6.6116 6.6116 9.917397481351422 0 0 0
329 0 1 0.0 9.9174 6.6116 9.917397481351422 0 0 0
341 0 1 0.0 6.6116 9.9174 9.917397481351422 0 0 0
343 0 1 0.0 9.9174 9.9174 9.917397481351422 0 0 0
232 0 1 0.0 11.5703 8.2645 8.264499509168592 0 0 0
233 0 1 0.0 13.2232 6.6116 6.611600490831407 0 0 0
234 0 1 0.0 14.876100000000001 8.2645 8.264499509168592 0 0 0
235 0 1 0.0 16.529 6.6116 6.611600490831407 0 0 0
247 0 1 0.0 13.2232 9.9174 6.611600490831407 0 0 0
249 0 1 0.0 16.529 9.9174 6.611600490831407 0 0 0
331 0 1 0.0 13.2232 6.6116 9.917397481351422 0 0 0
333 0 1 0.0 16.529 6.6116 9.917397481351422 0 0 0
345 0 1 0.0 13.2232 9.9174 9.917397481351422 0 0 0
347 0 1 0.0 16.529 9.9174 9.917397481351422 0 0 0
236 0 1 0.0 18.1819 8.2645 8.264499509168592 0 0 0
237 0 1 0.0 19.8348 6.6116 6.611600490831407 0 0 0
238 0 1 0.0 21.4877 8.2645 8.264499509168592 0 0 0
251 0 1 0.0 19.8348 9.9174 6.611600490831407 0 0 0
335 0 1 0.0 19.8348 6.6116 9.917397481351422 0 0 0
349 0 1 0.0 19.8348 9.9174 9.917397481351422 0 0 0
240 0 1 0.0 1.6529 11.5703 8.264499509168592 0 0 0
242 0 1 0.0 4.9587 11.5703 8.264499509168592 0 0 0
253 0 1 0.0 3.9293669527758405e-19 13.2232 6.611600490831407 0 0 0
254 0 1 0.0 1.6529 14.876100000000001 8.264499509168592 0 0 0
255 0 1 0.0 3.3058 13.2232 6.611600490831407 0 0 0
256 0 1 0.0 4.9587 14.876100000000001 8.264499509168592 0 0 0
267 0 1 0.0 0.0 16.529 6.611600490831407 0 0 0
269 0 1 0.0 3.3058 16.529 6.611600490831407 0 0 0
351 0 1 0.0 0.0 13.2232 9.917397481351422 0 0 0
353 0 1 0.0 3.3058 13.2232 9.917397481351422 0 0 0
365 0 1 0.0 1.0951907890975978e-19 16.529 9.917397481351422 0 0 0
367 0 1 0.0 3.3058 16.529 9.917397481351422 0 0 0
244 0 1 0.0 8.2645 11.5703 8.264499509168592 0 0 0
257 0 1 0.0 6.6116 13.2232 6.611600490831407 0 0 0
258 0 1 0.0 8.2645 14.876100000000001 8.264499509168592 0 0 0
259 0 1 0.0 9.9174 13.2232 6.611600490831407 0 0 0
271 0 1 0.0 6.6116 16.529 6.611600490831407 0 0 0
273 0 1 0.0 9.9174 16.529 6.611600490831407 0 0 0
355 0 1 0.0 6.6116 13.2232 9.917397481351422 0 0 0
357 0 1 0.0 9.9174 13.2232 9.917397481351422 0 0 0
369 0 1 0.0 6.6116 16.529 9.917397481351422 0 0 0
371 0 1 0.0 9.9174 16.529 9.917397481351422 0 0 0
246 0 1 0.0 11.5703 11.5703 8.264499509168592 0 0 0
248 0 1 0.0 14.876100000000001 11.5703 8.264499509168592 0 0 0
260 0 1 0.0 11.5703 14.876100000000001 8.264499509168592 0 0 0
261 0 1 0.0 13.2232 13.2232 6.611600490831407 0 0 0
262 0 1 0.0 14.876100000000001 14.876100000000001 8.264499509168592 0 0 0
263 0 1 0.0 16.529 13.2232 6.611600490831407 0 0 0
275 0 1 0.0 13.2232 16.529 6.611600490831407 0 0 0
277 0 1 0.0 16.529 16.529 6.611600490831407 0 0 0
359 0 1 0.0 13.2232 13.2232 9.917397481351422 0 0 0
361 0 1 0.0 16.529 13.2232 9.917397481351422 0 0 0
373 0 1 0.0 13.2232 16.529 9.917397481351422 0 0 0
375 0 1 0.0 16.529 16.529 9.917397481351422 0 0 0
250 0 1 0.0 18.1819 11.5703 8.264499509168592 0 0 0
252 0 1 0.0 21.4877 11.5703 8.264499509168592 0 0 0
264 0 1 0.0 18.1819 14.876100000000001 8.264499509168592 0 0 0
265 0 1 0.0 19.8348 13.2232 6.611600490831407 0 0 0
266 0 1 0.0 21.4877 14.876100000000001 8.264499509168592 0 0 0
279 0 1 0.0 19.8348 16.529 6.611600490831407 0 0 0
363 0 1 0.0 19.8348 13.2232 9.917397481351422 0 0 0
377 0 1 0.0 19.8348 16.529 9.917397481351422 0 0 0
268 0 1 0.0 1.6529 18.1819 8.264499509168592 0 0 0
270 0 1 0.0 4.9587 18.1819 8.264499509168592 0 0 0
281 0 1 0.0 2.9599751056691833e-19 19.8348 6.611600490831407 0 0 0
282 0 1 0.0 1.6529 21.4877 8.264499509168592 0 0 0
283 0 1 0.0 3.3058 19.8348 6.611600490831407 0 0 0
284 0 1 0.0 4.9587 21.4877 8.264499509168592 0 0 0
379 0 1 0.0 0.0 19.8348 9.917397481351422 0 0 0
381 0 1 0.0 3.3058 19.8348 9.917397481351422 0 0 0
272 0 1 0.0 8.2645 18.1819 8.264499509168592 0 0 0
285 0 1 0.0 6.6116 19.8348 6.611600490831407 0 0 0
286 0 1 0.0 8.2645 21.4877 8.264499509168592 0 0 0
287 0 1 0.0 9.9174 19.8348 6.611600490831407 0 0 0
383 0 1 0.0 6.6116 19.8348 9.917397481351422 0 0 0
385 0 1 0.0 9.9174 19.8348 9.917397481351422 0 0 0
274 0 1 0.0 11.5703 18.1819 8.264499509168592 0 0 0
276 0 1 0.0 14.876100000000001 18.1819 8.264499509168592 0 0 0
288 0 1 0.0 11.5703 21.4877 8.264499509168592 0 0 0
289 0 1 0.0 13.2232 19.8348 6.611600490831407 0 0 0
290 0 1 0.0 14.876100000000001 21.4877 8.264499509168592 0 0 0
291 0 1 0.0 16.529 19.8348 6.611600490831407 0 0 0
387 0 1 0.0 13.2232 19.8348 9.917397481351422 0 0 0
389 0 1 0.0 16.529 19.8348 9.917397481351422 0 0 0
278 0 1 0.0 18.1819 18.1819 8.264499509168592 0 0 0
280 0 1 0.0 21.4877 18.1819 8.264499509168592 0 0 0
292 0 1 0.0 18.1819 21.4877 8.264499509168592 0 0 0
293 0 1 0.0 19.8348 19.8348 6.611600490831407 0 0 0
294 0 1 0.0 21.4877 21.4877 8.264499509168592 0 0 0
391 0 1 0.0 19.8348 19.8348 9.917397481351422 0 0 0
296 0 1 0.0 1.6529 1.6529 11.570314575485924 0 0 0
298 0 1 0.0 4.9587 1.6529 11.570314575485924 0 0 0
310 0 1 0.0 1.6529 4.9587 11.570314575485924 0 0 0
312 0 1 0.0 4.9587 4.9587 11.570314575485924 0 0 0
393 0 1 0.0 3.537170251274674e-19 4.809959546712423e-19 13.22323001541909 0 0 0
394 0 1 0.0 1.6528999851689372 1.6528999801137294 14.876064841533605 0 0 0
395 0 1 0.0 3.3058 4.217964525578586e-20 13.22323001541909 0 0 0
396 0 1 0.0 4.958700033570555 1.6528999786409526 14.876064848207672 0 0 0
407 0 1 0.0 9.915916603991763e-20 3.3058 13.22323001541909 0 0 0
408 0 1 0.0 1.6528999903270671 4.9587000182127 14.876064816619643 0 0 0
409 0 1 0.0 3.3058 3.3058 13.22323001541909 0 0 0
410 0 1 0.0 4.958700011647474 4.958700013613346 14.876064808487246 0 0 0
300 0 1 0.0 8.2645 1.6529 11.570314575485924 0 0 0
314 0 1 0.0 8.2645 4.9587 11.570314575485924 0 0 0
397 0 1 0.0 6.6116 2.6935773461589564e-19 13.22323001541909 0 0 0
398 0 1 0.0 8.264499970762065 1.6528999651506584 14.876064903271107 0 0 0
399 0 1 0.0 9.9174 0.0 13.22323001541909 0 0 0
411 0 1 0.0 6.6116 3.3058 13.22323001541909 0 0 0
412 0 1 0.0 8.26449998249835 4.958700028765799 14.876064846943265 0 0 0
413 0 1 0.0 9.9174 3.3058 13.22323001541909 0 0 0
302 0 1 0.0 11.5703 1.6529 11.570314575485924 0 0 0
304 0 1 0.0 14.876100000000001 1.6529 11.570314575485924 0 0 0
316 0 1 0.0 11.5703 4.9587 11.570314575485924 0 0 0
318 0 1 0.0 14.876100000000001 4.9587 11.570314575485924 0 0 0
400 0 1 0.0 11.5703 1.6529 14.87606476102629 0 0 0
401 0 1 0.0 13.2232 0.0 13.22323001541909 0 0 0
402 0 1 0.0 14.876099984729398 1.6528999697154492 14.876064884480165 0 0 0
403 0 1 0.0 16.529 2.1163822361195681e-19 13.22323001541909 0 0 0
414 0 1 0.0 11.570300014247856 4.958700010092337 14.876064801744503 0 0 0
415 0 1 0.0 13.2232 3.3058 13.22323001541909 0 0 0
416 0 1 0.0 14.876099984486562 4.958700030991799 14.876064860602684 0 0 0
417 0 1 0.0 16.529 3.3058 13.22323001541909 0 0 0
306 0 1 0.0 18.1819 1.6529 11.570314575485924 0 0 0
308 0 1 0.0 21.4877 1.6529 11.570314575485924 0 0 0
320 0 1 0.0 18.1819 4.9587 11.570314575485924 0 0 0
322 0 1 0.0 21.4877 4.9587 11.570314575485924 0 0 0
404 0 1 0.0 18.1819 1.6529 14.87606476102629 0 0 0
405 0 1 0.0 19.8348 2.672302525086959e-19 13.22323001541909 0 0 0
406 0 1 0.0 21.48770002516321 1.6528999760060468 14.876064850724038 0 0 0
418 0 1 0.0 18.1819 4.9587 14.87606476102629 0 0 0
419 0 1 0.0 19.8348 3.3058 13.22323001541909 0 0 0
420 0 1 0.0 21.487700019308004 4.958700024889915 14.876064835560468 0 0 0
324 0 1 0.0 1.6529 8.2645 11.570314575485924 0 0 0
326 0 1 0.0 4.9587 8.2645 11.570314575485924 0 0 0
421 0 1 0.0 1.6871858102314345e-19 6.6116 13.22323001541909 0 0 0
422 0 1 0.0 1.652899973648109 8.264499976457019 14.876064872672616 0 0 0
423 0 1 0.0 3.3058 6.6116 13.22323001541909 0 0 0
424 0 1 0.0 4.9587000277484545 8.264499981146155 14.876064848632872 0 0 0
435 0 1 0.0 0.0 9.9174 13.22323001541909 0 0 0
437 0 1 0.0 3.3058 9.9174 13.22323001541909 0 0 0
328 0 1 0.0 8.2645 8.2645 11.570314575485924 0 0 0
425 0 1 0.0 6.6116 6.6116 13.22323001541909 0 0 0
426 0 1 0.0 8.264499976902206 8.264499975412205 14.876064888156485 0 0 0
427 0 1 0.0 9.9174 6.6116 13.22323001541909 0 0 0
439 0 1 0.0 6.6116 9.9174 13.22323001541909 0 0 0
441 0 1 0.0 9.9174 9.9174 13.22323001541909 0 0 0
330 0 1 0.0 11.5703 8.2645 11.570314575485924 0 0 0
332 0 1 0.0 14.876100000000001 8.2645 11.570314575485924 0 0 0
428 0 1 0.0 11.570300026988793 8.264499985525221 14.876064829500836 0 0 0
429 0 1 0.0 13.2232 6.6116 13.22323001541909 0 0 0
430 0 1 0.0 14.876099981438585 8.264499973697973 14.87606490077442 0 0 0
431 0 1 0.0 16.529 6.6116 13.22323001541909 0 0 0
443 0 1 0.0 13.2232 9.9174 13.22323001541909 0 0 0
445 0 1 0.0 16.529 9.9174 13.22323001541909 0 0 0
334 0 1 0.0 18.1819 8.2645 11.570314575485924 0 0 0
336 0 1 0.0 21.4877 8.2645 11.570314575485924 0 0 0
432 0 1 0.0 18.1819 8.2645 14.87606476102629 0 0 0
433 0 1 0.0 19.8348 6.6116 13.22323001541909 0 0 0
434 0 1 0.0 21.48770002681873 8.264499978357657 14.876064866862942 0 0 0
447 0 1 0.0 19.8348 9.9174 13.22323001541909 0 0 0
338 0 1 0.0 1.6529 11.5703 11.570314575485924 0 0 0
340 0 1 0.0 4.9587 11.5703 11.570314575485924 0 0 0
352 0 1 0.0 1.6529 14.876100000000001 11.570314575485924 0 0 0
354 0 1 0.0 4.9587 14.876100000000001 11.570314575485924 0 0 0
436 0 1 0.0 1.6528999860774811 11.570300015000598 14.876064810289314 0 0 0
438 0 1 0.0 4.958700009393452 11.570300013194164 14.876064799137202 0 0 0
449 0 1 0.0 2.456779337705422e-19 13.2232 13.22323001541909 0 0 0
450 0 1 0.0 1.6528999685361703 14.876099983203337 14.876064877538656 0 0 0
451 0 1 0.0 3.3058 13.2232 13.22323001541909 0 0 0
452 0 1 0.0 4.9587000310477745 14.876099985134903 14.876064858831416 0 0 0
463 0 1 0.0 0.0 16.529 13.22323001541909 0 0 0
465 0 1 0.0 3.3058 16.529 13.22323001541909 0 0 0
342 0 1 0.0 8.2645 11.5703 11.570314575485924 0 0 0
356 0 1 0.0 8.2645 14.876100000000001 11.570314575485924 0 0 0
440 0 1 0.0 8.264499985962798 11.570300027177959 14.876064829404008 0 0 0
453 0 1 0.0 6.6116 13.2232 13.22323001541909 0 0 0
454 0 1 0.0 8.264499974027895 14.876099981590519 14.876064903623632 0 0 0
455 0 1 0.0 9.9174 13.2232 13.22323001541909 0 0 0
467 0 1 0.0 6.6116 16.529 13.22323001541909 0 0 0
469 0 1 0.0 9.9174 16.529 13.22323001541909 0 0 0
344 0 1 0.0 11.5703 11.5703 11.570314575485924 0 0 0
346 0 1 0.0 14.876100000000001 11.5703 11.570314575485924 0 0 0
358 0 1 0.0 11.5703 14.876100000000001 11.570314575485924 0 0 0
360 0 1 0.0 14.876100000000001 14.876100000000001 11.570314575485924 0 0 0
442 0 1 0.0 11.570300019376655 11.570300015418105 14.876064802985606 0 0 0
444 0 1 0.0 14.876099987570464 11.570300037412782 14.876064862842606 0 0 0
456 0 1 0.0 11.570300028459071 14.876099986662672 14.876064822653193 0 0 0
457 0 1 0.0 13.2232 13.2232 13.22323001541909 0 0 0
458 0 1 0.0 14.876099974655196 14.876099963238104 14.876064955936176 0 0 0
459 0 1 0.0 16.529 13.2232 13.22323001541909 0 0 0
471 0 1 0.0 13.2232 16.529 13.22323001541909 0 0 0
473 0 1 0.0 16.529 16.529 13.22323001541909 0 0 0
348 0 1 0.0 18.1819 11.5703 11.570314575485924 0 0 0
350 0 1 0.0 21.4877 11.5703 11.570314575485924 0 0 0
362 0 1 0.0 18.1819 14.876100000000001 11.570314575485924 0 0 0
364 0 1 0.0 21.4877 14.876100000000001 11.570314575485924 0 0 0
446 0 1 0.0 18.1819 11.5703 14.87606476102629 0 0 0
448 0 1 0.0 21.48770001371123 11.570300015659425 14.876064812452952 0 0 0
460 0 1 0.0 18.1819 14.876100000000001 14.87606476102629 0 0 0
461 0 1 0.0 19.8348 13.2232 13.22323001541909 0 0 0
462 0 1 0.0 21.487700031453116 14.876099982682243 14.876064877634537 0 0 0
475 0 1 0.0 19.8348 16.529 13.22323001541909 0 0 0
366 0 1 0.0 1.6529 18.1819 11.570314575485924 0 0 0
368 0 1 0.0 4.9587 18.1819 11.570314575485924 0 0 0
380 0 1 0.0 1.6529 21.4877 11.570314575485924 0 0 0
382 0 1 0.0 4.9587 21.4877 11.570314575485924 0 0 0
464 0 1 0.0 1.6529 18.1819 14.87606476102629 0 0 0
466 0 1 0.0 4.9587 18.1819 14.87606476102629 0 0 0
477 0 1 0.0 3.344771869406177e-19 19.8348 13.22323001541909 0 0 0
478 0 1 0.0 1.6528999874704398 21.487700020946754 14.87606482904038 0 0 0
479 0 1 0.0 3.3058 19.8348 13.22323001541909 0 0 0
480 0 1 0.0 4.958700025780332 21.487700023139208 14.876064827976776 0 0 0
370 0 1 0.0 8.2645 18.1819 11.570314575485924 0 0 0
384 0 1 0.0 8.2645 21.4877 11.570314575485924 0 0 0
468 0 1 0.0 8.2645 18.1819 14.87606476102629 0 0 0
481 0 1 0.0 6.6116 19.8348 13.22323001541909 0 0 0
482 0 1 0.0 8.264499977845777 21.487700037251262 14.876064868808301 0 0 0
483 0 1 0.0 9.9174 19.8348 13.22323001541909 0 0 0
372 0 1 0.0 11.5703 18.1819 11.570314575485924 0 0 0
374 0 1 0.0 14.876100000000001 18.1819 11.570314575485924 0 0 0
386 0 1 0.0 11.5703 21.4877 11.570314575485924 0 0 0
388 0 1 0.0 14.876100000000001 21.4877 11.570314575485924 0 0 0
470 0 1 0.0 11.5703 18.1819 14.87606476102629 0 0 0
472 0 1 0.0 14.876100000000001 18.1819 14.87606476102629 0 0 0
484 0 1 0.0 11.57030001513199 21.487700008654226 14.876064806234528 0 0 0
485 0 1 0.0 13.2232 19.8348 13.22323001541909 0 0 0
486 0 1 0.0 14.876099982487485 21.487700030691983 14.876064878270222 0 0 0
487 0 1 0.0 16.529 19.8348 13.22323001541909 0 0 0
376 0 1 0.0 18.1819 18.1819 11.570314575485924 0 0 0
378 0 1 0.0 21.4877 18.1819 11.570314575485924 0 0 0
390 0 1 0.0 18.1819 21.4877 11.570314575485924 0 0 0
392 0 1 0.0 21.4877 21.4877 11.570314575485924 0 0 0
474 0 1 0.0 18.1819 18.1819 14.87606476102629 0 0 0
476 0 1 0.0 21.4877 18.1819 14.87606476102629 0 0 0
488 0 1 0.0 18.1819 21.4877 14.87606476102629 0 0 0
489 0 1 0.0 19.8348 19.8348 13.22323001541909 0 0 0
490 0 1 0.0 21.487700023743066 21.48770002402457 14.876064850668229 0 0 0
492 1 2 0.0 0.5555898542661662 0.18156872837621815 20.83261806933739 0 0 0
493 2 2 0.0 7.1140059001564975 0.28160062062264946 20.47334285802389 0 0 0
496 3 2 0.0 14.375449057717157 0.47804113199179055 20.986632831889057 0 0 0
498 4 2 0.0 0.6004124918652939 6.94037809383086 20.925072915999174 0 0 0
499 5 2 0.0 6.462344962632834 6.716131611766861 21.003130328358264 0 0 0
500 5 2 0.0 7.537655037367167 7.283868388233139 20.996869671641736 0 0 0
501 6 2 0.0 13.703626868714741 6.469822243937534 20.972824385402742 0 0 0
502 6 2 0.0 14.296373131285259 7.530177756062466 21.027175614597258 0 0 0
497 4 2 0.0 22.540187508134707 7.05962190616914 21.074927084000826 -1 0 0
503 7 2 0.0 0.048147996945044 14.596932679141663 21.104962597923908 0 0 0
505 8 2 0.0 6.4730484534349175 13.697373586851786 21.02008286926 0 0 0
506 8 2 0.0 7.5269515465650825 14.302626413148214 20.97991713074 0 0 0
507 9 2 0.0 14.184914240245275 13.650762371648735 20.537935282998045 0 0 0
508 9 2 0.0 13.815085759754725 14.349237628351265 21.462064717001955 0 0 0
504 7 2 0.0 23.092452003054955 13.403067320858337 20.895037402076092 -1 0 0
494 2 2 0.0 6.8859940998435025 22.858999379377348 21.526657141976113 0 -1 0
495 3 2 0.0 13.624550942282843 22.662558868008208 21.013367168110943 0 -1 0
491 1 2 0.0 22.585010145733833 22.959031271623783 21.16738193066261 -1 -1 0
511 11 2 0.0 6.630878292429127 0.38110924130990487 27.703067497252068 0 0 0
520 15 2 0.0 13.803084152197448 6.720960231260172 27.496984139071316 0 0 0
524 17 2 0.0 7.453524788730512 13.822596768778304 27.635984396544536 0 0 0
522 16 2 0.0 22.99824038945682 13.528468736392973 27.643550832898775 -1 0 0
514 12 2 0.0 14.566712964673865 0.19418611467704686 27.896114637521976 0 0 0
509 10 2 0.0 22.668876465257874 0.3802352668706689 27.949383316997388 -1 0 0
515 13 2 0.0 0.017330632168844375 7.606765319304372 27.96536625232389 0 0 0
517 14 2 0.0 7.428095117992917 6.598696286595612 28.159229078872166 0 0 0
518 14 2 0.0 6.571904882007083 7.401303713404388 27.840770921127834 0 0 0
519 15 2 0.0 14.196915847802552 7.279039768739828 28.503015860928684 0 0 0
516 13 2 0.0 23.123269367831156 6.393234680695628 28.03463374767611 -1 0 0
521 16 2 0.0 0.14235961054317645 14.471531263607027 28.356449167101225 0 0 0
523 17 2 0.0 6.546475211269488 14.177403231221696 28.364015603455464 0 0 0
525 18 2 0.0 13.393011211575445 13.998234135820498 27.964992965698446 0 0 0
526 18 2 0.0 14.606988788424555 14.001765864179502 28.035007034301554 0 0 0